FoamFile
{
    version     2.0;
    format      ascii;
    class       volScalarField;
    location    "./ifc/fluidRegion";
    object      powerDensityNeutronics;
}

dimensions      [1 -1 -3 0 0 0 0];

internalField   nonuniform List<scalar>
32670
(
 1.78505E+06
 0.00000E+00
 2.27208E+06
 0.00000E+00
 0.00000E+00
 0.00000E+00
 0.00000E+00
 5.91281E+05
 9.90927E+04
 1.37844E+06
 0.00000E+00
 3.58638E+05
 0.00000E+00
 0.00000E+00
 0.00000E+00
 2.49985E+06
 0.00000E+00
 0.00000E+00
 1.06304E+06
 1.99617E+06
 0.00000E+00
 7.70671E+05
 0.00000E+00
 0.00000E+00
 1.29301E+06
 4.12244E+06
 1.46144E+06
 3.74584E+06
 0.00000E+00
 2.28828E+06
 0.00000E+00
 1.04559E+06
 0.00000E+00
 3.28717E+06
 0.00000E+00
 1.30897E+06
 2.42335E+06
 0.00000E+00
 6.21339E+05
 1.69679E+06
 1.82981E+06
 0.00000E+00
 2.31992E+06
 1.23425E+06
 1.67186E+05
 6.27248E+05
 0.00000E+00
 5.56256E+05
 1.16856E+06
 3.49231E+05
 0.00000E+00
 0.00000E+00
 4.47291E+05
 0.00000E+00
 1.55870E+06
 6.65085E+05
 1.20687E+06
 1.89924E+06
 0.00000E+00
 1.03555E+06
 4.45286E+05
 1.00933E+06
 2.50803E+06
 5.40116E+05
 1.99321E+06
 1.16314E+06
 1.89092E+06
 0.00000E+00
 0.00000E+00
 1.83108E+06
 4.58642E+02
 1.30974E+06
 1.79127E+05
 6.13946E+05
 0.00000E+00
 0.00000E+00
 1.87365E+06
 0.00000E+00
 0.00000E+00
 0.00000E+00
 0.00000E+00
 2.96315E+06
 0.00000E+00
 3.47400E+06
 0.00000E+00
 1.43288E+06
 0.00000E+00
 2.58769E+06
 0.00000E+00
 3.09121E+05
 1.73461E+06
 1.58619E+06
 1.09278E+06
 1.35556E+06
 1.54086E+06
 1.60042E+06
 4.37647E+05
 8.91173E+05
 0.00000E+00
 0.00000E+00
 6.13503E+05
 2.85289E+05
 1.08850E+06
 3.34431E+06
 1.04777E+06
 2.91715E+05
 0.00000E+00
 0.00000E+00
 0.00000E+00
 0.00000E+00
 1.40792E+06
 2.05392E+06
 0.00000E+00
 2.45702E+06
 0.00000E+00
 0.00000E+00
 0.00000E+00
 1.25174E+06
 0.00000E+00
 0.00000E+00
 2.04563E+06
 0.00000E+00
 0.00000E+00
 0.00000E+00
 0.00000E+00
 1.72662E+06
 0.00000E+00
 0.00000E+00
 2.48748E+05
 1.03294E+06
 1.19539E+06
 2.39980E+06
 1.94204E+05
 1.31177E+06
 1.40936E+05
 1.42740E+06
 0.00000E+00
 0.00000E+00
 1.27655E+06
 1.72916E+06
 8.56725E+05
 1.23263E+06
 3.62039E+04
 3.59530E+06
 1.14916E+06
 5.86655E+05
 1.23549E+06
 1.14200E+06
 3.35876E+06
 0.00000E+00
 5.69217E+05
 2.37367E+05
 0.00000E+00
 0.00000E+00
 9.96210E+05
 1.77591E+06
 0.00000E+00
 1.33960E+05
 2.45067E+06
 1.27570E+05
 7.44767E+05
 9.15621E+04
 0.00000E+00
 8.03677E+05
 0.00000E+00
 0.00000E+00
 0.00000E+00
 2.44341E+06
 2.52771E+06
 1.40681E+05
 6.85082E+04
 3.11891E+06
 2.41644E+06
 2.02494E+06
 0.00000E+00
 7.22065E+05
 2.59634E+06
 2.39341E+06
 1.11617E+06
 0.00000E+00
 3.97224E+05
 1.47892E+04
 0.00000E+00
 0.00000E+00
 1.95278E+06
 1.16135E+06
 0.00000E+00
 0.00000E+00
 5.37345E+05
 1.02353E+05
 0.00000E+00
 3.17860E+06
 2.82485E+06
 0.00000E+00
 5.14580E+05
 2.41576E+06
 2.79012E+04
 2.61688E+06
 0.00000E+00
 0.00000E+00
 1.81522E+05
 2.24161E+05
 5.90249E+05
 0.00000E+00
 7.38443E+05
 1.93583E+06
 5.60398E+04
 9.15207E+05
 0.00000E+00
 3.94214E+05
 0.00000E+00
 5.71222E+04
 2.50056E+06
 0.00000E+00
 2.51240E+06
 6.95264E+04
 0.00000E+00
 2.81223E+06
 3.04294E+06
 1.10268E+06
 1.91202E+06
 0.00000E+00
 2.75883E+06
 3.45368E+06
 2.44949E+06
 3.20078E+06
 2.81017E+06
 4.80779E+05
 8.32818E+05
 0.00000E+00
 0.00000E+00
 1.96495E+06
 1.09804E+06
 0.00000E+00
 2.87371E+05
 1.25065E+06
 1.53380E+06
 1.76620E+06
 0.00000E+00
 0.00000E+00
 3.68728E+04
 0.00000E+00
 3.03428E+05
 2.18289E+05
 3.14091E+06
 2.55906E+06
 2.01037E+06
 2.19510E+06
 2.76774E+05
 0.00000E+00
 4.01860E+05
 2.81480E+06
 1.75583E+06
 6.53058E+05
 1.22668E+06
 3.11432E+06
 3.69900E+06
 5.43886E+06
 3.77320E+05
 0.00000E+00
 0.00000E+00
 1.03100E+06
 2.81031E+05
 1.77714E+06
 2.21113E+06
 0.00000E+00
 8.26219E+05
 9.85587E+05
 3.17115E+06
 2.54667E+05
 1.42884E+06
 2.62674E+06
 2.48195E+06
 3.68596E+05
 0.00000E+00
 3.27152E+05
 2.88595E+06
 0.00000E+00
 1.64755E+06
 7.79272E+05
 1.51223E+06
 2.78468E+06
 2.00885E+06
 2.88826E+06
 2.42160E+06
 2.96497E+06
 0.00000E+00
 0.00000E+00
 1.15212E+06
 1.96949E+06
 0.00000E+00
 3.03421E+06
 1.27877E+06
 2.74181E+05
 0.00000E+00
 0.00000E+00
 0.00000E+00
 4.45514E+06
 0.00000E+00
 5.20581E+05
 9.13241E+04
 1.46998E+06
 1.31182E+05
 0.00000E+00
 0.00000E+00
 0.00000E+00
 1.69875E+06
 5.29925E+05
 0.00000E+00
 2.13101E+06
 2.12752E+05
 1.73755E+06
 0.00000E+00
 0.00000E+00
 1.18694E+06
 2.20553E+06
 7.94348E+05
 3.61557E+05
 0.00000E+00
 5.35832E+06
 1.10699E+06
 2.57345E+06
 0.00000E+00
 3.94574E+05
 5.67558E+05
 6.12264E+05
 2.03257E+06
 1.65907E+06
 9.74840E+05
 1.91598E+05
 3.02785E+06
 0.00000E+00
 3.24531E+06
 2.00691E+04
 2.16584E+06
 3.41846E+06
 0.00000E+00
 1.04883E+06
 0.00000E+00
 0.00000E+00
 0.00000E+00
 0.00000E+00
 1.64885E+06
 0.00000E+00
 0.00000E+00
 3.98091E+06
 0.00000E+00
 0.00000E+00
 2.51131E+06
 3.90306E+04
 8.09969E+05
 0.00000E+00
 0.00000E+00
 0.00000E+00
 1.94189E+05
 1.52453E+06
 7.25726E+05
 2.53083E+05
 1.71450E+06
 3.90734E+06
 1.47267E+06
 0.00000E+00
 3.87954E+06
 1.71559E+06
 2.84348E+05
 3.76877E+06
 2.88195E+06
 1.22658E+06
 3.02942E+06
 2.07967E+06
 0.00000E+00
 0.00000E+00
 1.72465E+06
 5.03580E+05
 6.68283E+05
 0.00000E+00
 1.37343E+06
 0.00000E+00
 1.23552E+06
 1.81285E+06
 0.00000E+00
 0.00000E+00
 0.00000E+00
 0.00000E+00
 2.63419E+04
 0.00000E+00
 9.66622E+05
 2.41859E+05
 0.00000E+00
 2.00315E+06
 2.35295E+06
 1.66447E+06
 2.75868E+06
 1.01123E+06
 1.38597E+06
 0.00000E+00
 0.00000E+00
 0.00000E+00
 2.52409E+05
 2.02186E+06
 0.00000E+00
 2.19003E+06
 5.10637E+04
 1.03751E+06
 1.56139E+04
 2.19488E+06
 0.00000E+00
 0.00000E+00
 2.53415E+06
 3.53914E+06
 1.65288E+06
 5.68928E+05
 1.79297E+06
 3.18614E+06
 0.00000E+00
 2.09415E+06
 0.00000E+00
 1.30186E+06
 2.03577E+06
 0.00000E+00
 1.72237E+06
 1.26068E+06
 1.90964E+06
 1.01607E+06
 0.00000E+00
 3.24558E+06
 1.66857E+06
 5.16181E+05
 0.00000E+00
 0.00000E+00
 4.91768E+06
 0.00000E+00
 0.00000E+00
 2.59769E+05
 0.00000E+00
 1.89489E+06
 0.00000E+00
 0.00000E+00
 0.00000E+00
 0.00000E+00
 3.04529E+06
 0.00000E+00
 2.75795E+06
 1.22031E+06
 3.06384E+05
 1.00902E+06
 2.79768E+05
 0.00000E+00
 0.00000E+00
 4.19180E+06
 2.22730E+06
 0.00000E+00
 0.00000E+00
 0.00000E+00
 1.87036E+06
 0.00000E+00
 2.84405E+06
 1.67399E+06
 0.00000E+00
 1.89934E+05
 1.19482E+05
 0.00000E+00
 1.40603E+06
 0.00000E+00
 7.81953E+05
 0.00000E+00
 2.32915E+06
 1.51256E+06
 0.00000E+00
 2.70901E+06
 0.00000E+00
 0.00000E+00
 0.00000E+00
 0.00000E+00
 0.00000E+00
 0.00000E+00
 1.14497E+06
 1.95114E+06
 1.15967E+06
 2.18701E+06
 1.17612E+04
 4.61082E+05
 4.23579E+06
 0.00000E+00
 0.00000E+00
 0.00000E+00
 4.06283E+05
 1.86373E+05
 0.00000E+00
 0.00000E+00
 2.42412E+06
 1.23847E+06
 1.61826E+06
 0.00000E+00
 0.00000E+00
 0.00000E+00
 2.95579E+06
 6.86630E+05
 0.00000E+00
 2.18465E+06
 4.34815E+04
 4.18760E+05
 2.20226E+06
 1.02090E+06
 1.99146E+06
 1.40470E+06
 0.00000E+00
 2.72075E+06
 0.00000E+00
 2.19732E+06
 5.90274E+05
 2.29032E+06
 2.48317E+06
 0.00000E+00
 8.88879E+05
 4.96771E+04
 1.22544E+06
 0.00000E+00
 1.47412E+06
 3.82964E+06
 2.59722E+06
 9.01804E+05
 0.00000E+00
 2.34708E+06
 0.00000E+00
 1.07915E+06
 1.51429E+04
 5.82374E+05
 8.51551E+03
 0.00000E+00
 0.00000E+00
 2.33676E+06
 0.00000E+00
 1.84602E+06
 9.04657E+05
 7.54314E+05
 2.55740E+06
 0.00000E+00
 0.00000E+00
 4.23212E+04
 0.00000E+00
 2.59017E+05
 1.81653E+06
 0.00000E+00
 0.00000E+00
 3.22376E+05
 0.00000E+00
 3.80927E+06
 1.45122E+06
 0.00000E+00
 2.36927E+06
 0.00000E+00
 0.00000E+00
 7.76783E+05
 1.56554E+04
 0.00000E+00
 0.00000E+00
 1.13025E+06
 1.71586E+06
 6.23326E+04
 0.00000E+00
 0.00000E+00
 2.85813E+06
 2.72808E+05
 0.00000E+00
 8.90573E+05
 0.00000E+00
 1.09492E+06
 0.00000E+00
 0.00000E+00
 2.08689E+06
 0.00000E+00
 1.88120E+06
 2.39726E+06
 3.46664E+06
 2.82558E+05
 0.00000E+00
 0.00000E+00
 1.26863E+06
 1.71126E+06
 0.00000E+00
 5.24417E+05
 0.00000E+00
 0.00000E+00
 1.60365E+06
 1.80086E+05
 3.58180E+05
 8.14643E+05
 0.00000E+00
 1.31933E+05
 4.20193E+04
 1.33247E+04
 0.00000E+00
 1.33410E+06
 1.41282E+06
 2.07639E+06
 3.85548E+06
 3.54005E+06
 0.00000E+00
 5.68260E+04
 1.40599E+06
 1.68456E+06
 3.54457E+05
 1.81432E+06
 1.35673E+06
 3.85625E+06
 1.10803E+05
 0.00000E+00
 9.21125E+05
 1.56364E+06
 5.90141E+05
 1.33180E+05
 2.77171E+04
 1.16541E+06
 0.00000E+00
 1.44398E+06
 2.88566E+05
 0.00000E+00
 2.87272E+06
 1.94458E+04
 2.74989E+06
 1.06056E+06
 2.93276E+04
 6.82298E+03
 6.19499E+05
 1.28442E+06
 0.00000E+00
 1.31131E+06
 1.27359E+05
 0.00000E+00
 1.25784E+06
 1.49597E+06
 5.00469E+05
 2.41664E+06
 4.10399E+04
 0.00000E+00
 2.57465E+06
 1.14183E+06
 7.04928E+05
 3.02482E+06
 1.81412E+06
 1.61763E+06
 0.00000E+00
 2.73919E+06
 2.04328E+06
 1.57208E+06
 1.66207E+06
 1.81141E+06
 2.34357E+02
 1.66588E+06
 2.32700E+06
 3.82680E+04
 1.75895E+06
 7.84490E+05
 2.78962E+06
 2.27440E+06
 0.00000E+00
 3.08513E+06
 0.00000E+00
 1.45801E+05
 9.31177E+04
 1.13022E+06
 1.10136E+06
 0.00000E+00
 1.20252E+05
 1.99991E+06
 2.95977E+06
 1.35049E+05
 1.64328E+06
 1.55993E+06
 1.40141E+06
 1.02227E+05
 2.79164E+06
 0.00000E+00
 2.61433E+06
 6.95845E+05
 3.34501E+05
 4.93309E+05
 0.00000E+00
 2.63176E+06
 1.76077E+06
 0.00000E+00
 9.63114E+05
 3.28208E+06
 3.09489E+06
 3.77889E+06
 2.85979E+06
 5.54810E+05
 2.29307E+06
 1.75806E+06
 3.83215E+05
 3.28158E+06
 0.00000E+00
 0.00000E+00
 0.00000E+00
 0.00000E+00
 3.79492E+06
 1.32399E+06
 0.00000E+00
 0.00000E+00
 1.32811E+06
 0.00000E+00
 2.60977E+06
 0.00000E+00
 2.33143E+06
 1.24581E+06
 2.24919E+06
 6.19209E+05
 1.21056E+06
 0.00000E+00
 6.62471E+05
 0.00000E+00
 2.79740E+06
 5.21104E+05
 2.00639E+06
 0.00000E+00
 0.00000E+00
 0.00000E+00
 2.16065E+06
 1.32368E+06
 3.77953E+06
 7.96426E+05
 2.53768E+06
 0.00000E+00
 9.90185E+05
 8.91839E+05
 1.68233E+06
 1.25896E+06
 9.53063E+05
 0.00000E+00
 1.62488E+06
 1.67675E+06
 2.48108E+06
 2.29422E+06
 5.28733E+05
 2.61079E+06
 2.35098E+06
 0.00000E+00
 0.00000E+00
 2.47631E+05
 9.85056E+05
 1.42601E+06
 1.65853E+06
 1.04901E+06
 0.00000E+00
 2.74679E+05
 0.00000E+00
 2.33759E+06
 2.69583E+06
 0.00000E+00
 0.00000E+00
 2.34841E+06
 0.00000E+00
 0.00000E+00
 8.50776E+05
 1.69867E+06
 1.55720E+06
 8.61462E+05
 2.31291E+06
 0.00000E+00
 1.13515E+05
 2.23484E+06
 1.26898E+05
 2.97913E+06
 0.00000E+00
 1.84175E+04
 0.00000E+00
 7.19924E+05
 1.11081E+05
 2.87835E+06
 2.08290E+06
 1.16894E+06
 1.89016E+06
 0.00000E+00
 3.62806E+06
 6.07331E+05
 0.00000E+00
 1.57239E+06
 1.51781E+06
 2.18151E+06
 1.33985E+06
 1.91138E+06
 0.00000E+00
 0.00000E+00
 3.11847E+05
 0.00000E+00
 2.89738E+06
 2.83595E+06
 1.43671E+06
 0.00000E+00
 0.00000E+00
 2.45031E+06
 2.58089E+06
 3.30110E+06
 1.60749E+06
 1.44986E+06
 2.53374E+06
 0.00000E+00
 0.00000E+00
 0.00000E+00
 2.70435E+05
 7.22475E+05
 1.58287E+06
 9.89687E+05
 2.94452E+05
 0.00000E+00
 1.21927E+06
 2.80470E+06
 1.54624E+06
 1.85410E+06
 5.34265E+05
 1.18069E+06
 0.00000E+00
 1.35837E+06
 0.00000E+00
 3.41310E+05
 0.00000E+00
 1.65273E+06
 2.93365E+05
 0.00000E+00
 3.10294E+06
 5.26441E+05
 2.87374E+06
 0.00000E+00
 0.00000E+00
 2.38155E+06
 0.00000E+00
 3.29018E+06
 2.99878E+04
 1.60207E+05
 1.74306E+06
 2.46929E+06
 3.40860E+06
 0.00000E+00
 0.00000E+00
 0.00000E+00
 1.02115E+06
 0.00000E+00
 9.91588E+05
 1.39271E+06
 2.03961E+06
 1.83673E+05
 0.00000E+00
 0.00000E+00
 0.00000E+00
 1.60773E+06
 0.00000E+00
 0.00000E+00
 6.96054E+04
 1.26069E+06
 0.00000E+00
 2.76455E+05
 2.65870E+06
 0.00000E+00
 0.00000E+00
 0.00000E+00
 4.89060E+05
 2.37987E+06
 2.44354E+06
 1.74561E+05
 0.00000E+00
 6.78785E+05
 0.00000E+00
 2.00702E+05
 2.49845E+06
 2.39681E+06
 4.06596E+06
 1.52197E+06
 1.48643E+06
 0.00000E+00
 5.51518E+06
 0.00000E+00
 1.75723E+05
 2.22300E+06
 2.24544E+06
 1.49968E+06
 1.22021E+06
 1.08546E+05
 2.81493E+06
 3.48071E+06
 1.15648E+05
 2.20484E+06
 0.00000E+00
 5.64529E+05
 2.23945E+06
 0.00000E+00
 7.39729E+05
 1.69872E+06
 3.26255E+05
 0.00000E+00
 4.25511E+05
 2.67645E+06
 1.81106E+06
 2.79789E+06
 5.67148E+05
 2.85921E+06
 0.00000E+00
 0.00000E+00
 0.00000E+00
 0.00000E+00
 1.48061E+06
 0.00000E+00
 1.67970E+06
 2.18189E+04
 1.18630E+06
 1.59066E+04
 1.94160E+06
 0.00000E+00
 8.77568E+05
 3.72114E+06
 9.99091E+05
 9.21024E+05
 3.03925E+06
 1.15217E+06
 2.51615E+06
 0.00000E+00
 2.96199E+06
 3.34075E+06
 0.00000E+00
 8.58908E+03
 0.00000E+00
 3.22612E+06
 4.50583E+06
 0.00000E+00
 1.08937E+05
 2.78127E+06
 1.89642E+06
 1.55158E+06
 2.06535E+06
 1.38141E+06
 1.12627E+06
 1.95750E+06
 0.00000E+00
 0.00000E+00
 2.68117E+06
 1.02689E+06
 2.16213E+06
 2.15604E+06
 2.26675E+06
 0.00000E+00
 4.09675E+05
 0.00000E+00
 0.00000E+00
 0.00000E+00
 9.31036E+05
 0.00000E+00
 6.14681E+05
 0.00000E+00
 1.23362E+06
 3.53824E+06
 0.00000E+00
 2.15736E+06
 4.47103E+05
 3.41080E+06
 0.00000E+00
 2.00697E+06
 0.00000E+00
 2.10982E+06
 0.00000E+00
 1.21146E+06
 1.27402E+06
 0.00000E+00
 2.24373E+06
 2.17559E+06
 1.21990E+06
 3.67891E+04
 1.52427E+06
 4.94251E+05
 1.43301E+06
 7.48183E+05
 3.43841E+06
 2.10544E+06
 1.09182E+04
 0.00000E+00
 2.32982E+06
 0.00000E+00
 3.76279E+06
 0.00000E+00
 0.00000E+00
 8.83612E+05
 6.76053E+04
 7.13468E+05
 0.00000E+00
 2.70763E+06
 6.14642E+04
 0.00000E+00
 2.24960E+06
 7.96270E+05
 0.00000E+00
 9.50722E+05
 2.54587E+05
 0.00000E+00
 2.43351E+06
 1.95751E+06
 2.79066E+06
 4.47626E+05
 6.08789E+04
 3.00072E+06
 2.61845E+06
 3.85135E+06
 1.30810E+06
 0.00000E+00
 5.40281E+04
 6.81628E+05
 4.13424E+00
 2.68253E+06
 1.54184E+06
 3.83849E+06
 1.39146E+06
 3.48381E+06
 1.42823E+06
 1.44264E+06
 2.02690E+06
 4.14023E+05
 9.36332E+04
 2.90370E+06
 1.71172E+06
 0.00000E+00
 3.88329E+05
 2.49619E+04
 0.00000E+00
 1.24458E+06
 2.37593E+05
 1.90137E+06
 3.03294E+05
 4.65238E+05
 6.48965E+05
 3.55364E+05
 9.48332E+05
 2.99163E+05
 3.71373E+05
 2.11681E+05
 7.71717E+04
 2.76789E+06
 0.00000E+00
 5.71206E+05
 1.29350E+06
 0.00000E+00
 0.00000E+00
 2.84471E+06
 2.16606E+05
 1.98940E+06
 3.19760E+05
 1.99340E+06
 3.37256E+06
 1.06187E+06
 8.91668E+05
 0.00000E+00
 5.80819E+05
 2.04127E+06
 0.00000E+00
 1.15380E+06
 2.31309E+06
 2.48137E+06
 1.55437E+06
 2.95493E+05
 0.00000E+00
 1.66941E+06
 4.61244E+05
 1.69881E+06
 0.00000E+00
 3.71838E+06
 2.61911E+06
 1.76977E+06
 2.98815E+05
 1.13588E+05
 1.20968E+06
 1.07935E+06
 3.31499E+06
 2.45367E+06
 2.06300E+04
 0.00000E+00
 1.75626E+05
 2.01626E+06
 7.31035E+05
 5.25615E+02
 0.00000E+00
 4.51794E+05
 6.59624E+05
 7.78815E+05
 0.00000E+00
 4.03968E+06
 1.61931E+06
 6.31706E+05
 0.00000E+00
 6.89309E+03
 0.00000E+00
 0.00000E+00
 3.07512E+06
 5.14349E+04
 7.29194E+05
 3.75557E+06
 1.07481E+06
 0.00000E+00
 0.00000E+00
 1.29311E+06
 2.33967E+06
 2.38286E+06
 0.00000E+00
 2.53781E+06
 0.00000E+00
 0.00000E+00
 8.10550E+05
 0.00000E+00
 1.94552E+06
 2.19459E+05
 1.04621E+04
 0.00000E+00
 1.30471E+06
 0.00000E+00
 0.00000E+00
 0.00000E+00
 1.49286E+06
 1.66169E+06
 0.00000E+00
 1.90824E+06
 1.43472E+06
 2.35177E+05
 0.00000E+00
 0.00000E+00
 3.33368E+05
 2.03097E+05
 0.00000E+00
 4.61322E+05
 2.20878E+06
 0.00000E+00
 0.00000E+00
 1.36746E+06
 1.04613E+06
 0.00000E+00
 3.85508E+06
 5.87429E+05
 1.80271E+06
 0.00000E+00
 7.38893E+05
 1.61505E+06
 1.59793E+06
 1.29230E+05
 8.13005E+05
 0.00000E+00
 9.34997E+05
 4.19900E+05
 0.00000E+00
 2.41496E+06
 0.00000E+00
 0.00000E+00
 6.27906E+04
 5.72299E+05
 0.00000E+00
 2.04485E+06
 2.85724E+06
 2.17752E+06
 2.78123E+06
 4.95800E+06
 1.40450E+06
 1.70975E+04
 0.00000E+00
 0.00000E+00
 3.30762E+06
 2.33227E+06
 2.17618E+06
 0.00000E+00
 2.36553E+06
 0.00000E+00
 9.09828E+05
 1.80248E+06
 3.53020E+06
 9.94683E+05
 6.03949E+05
 0.00000E+00
 1.84235E+06
 4.29220E+04
 3.67776E+06
 2.57011E+05
 2.63042E+06
 3.29910E+06
 0.00000E+00
 1.97700E+05
 1.48585E+06
 0.00000E+00
 2.71411E+06
 0.00000E+00
 0.00000E+00
 0.00000E+00
 1.18629E+06
 1.10475E+06
 3.06020E+04
 1.06356E+06
 0.00000E+00
 0.00000E+00
 2.04021E+06
 1.34841E+06
 7.63473E+03
 0.00000E+00
 1.71949E+06
 1.96881E+06
 7.79407E+05
 1.55573E+06
 9.48612E+05
 0.00000E+00
 2.28052E+06
 0.00000E+00
 1.95122E+06
 1.10643E+06
 0.00000E+00
 0.00000E+00
 1.31356E+06
 1.73751E+06
 4.22498E+05
 1.96181E+06
 3.44322E+06
 9.93270E+05
 1.98363E+06
 2.38895E+06
 1.72883E+05
 2.27485E+06
 2.79781E+05
 2.14354E+06
 1.41489E+06
 0.00000E+00
 0.00000E+00
 0.00000E+00
 2.12676E+06
 0.00000E+00
 2.96859E+06
 1.55806E+06
 1.32804E+06
 0.00000E+00
 1.87970E+06
 1.42287E+06
 2.40854E+06
 0.00000E+00
 2.29444E+06
 7.88594E+05
 1.47571E+06
 0.00000E+00
 1.85736E+06
 2.30592E+06
 1.98218E+06
 0.00000E+00
 0.00000E+00
 0.00000E+00
 3.62119E+02
 1.01103E+06
 4.48379E+05
 4.40441E+05
 2.17726E+06
 2.87650E+06
 2.75248E+04
 0.00000E+00
 0.00000E+00
 1.06594E+06
 0.00000E+00
 8.33381E+05
 2.34499E+06
 3.51821E+06
 2.65880E+06
 8.02726E+04
 0.00000E+00
 0.00000E+00
 2.67689E+05
 1.06790E+06
 1.29093E+06
 1.50646E+06
 0.00000E+00
 0.00000E+00
 1.70427E+02
 1.67339E+06
 0.00000E+00
 0.00000E+00
 0.00000E+00
 1.97664E+06
 4.83761E+05
 0.00000E+00
 4.86102E+05
 2.71209E+06
 0.00000E+00
 2.02143E+06
 0.00000E+00
 5.59648E+05
 1.04108E+04
 2.03433E+06
 2.31572E+06
 0.00000E+00
 3.20224E+05
 9.22799E+05
 4.16507E+05
 1.02754E+06
 4.84622E+04
 0.00000E+00
 0.00000E+00
 2.56778E+06
 1.24920E+06
 3.80562E+06
 4.25890E+04
 0.00000E+00
 0.00000E+00
 1.96838E+06
 0.00000E+00
 1.52179E+06
 0.00000E+00
 0.00000E+00
 0.00000E+00
 0.00000E+00
 0.00000E+00
 2.87980E+06
 0.00000E+00
 0.00000E+00
 1.85698E+05
 0.00000E+00
 0.00000E+00
 1.85801E+06
 0.00000E+00
 5.44730E+04
 3.10982E+06
 8.03758E+05
 8.16605E+05
 1.20909E+05
 0.00000E+00
 0.00000E+00
 0.00000E+00
 6.47582E+05
 8.51407E+05
 9.32125E+05
 4.27517E+05
 4.86513E+05
 0.00000E+00
 0.00000E+00
 0.00000E+00
 1.59540E+06
 2.00147E+06
 1.91403E+06
 0.00000E+00
 0.00000E+00
 0.00000E+00
 0.00000E+00
 0.00000E+00
 0.00000E+00
 0.00000E+00
 3.84183E+06
 1.34107E+06
 8.15746E+04
 2.87479E+06
 1.67236E+06
 2.70306E+06
 2.66557E+06
 2.97325E+06
 0.00000E+00
 2.89671E+06
 0.00000E+00
 0.00000E+00
 1.27418E+06
 0.00000E+00
 0.00000E+00
 1.81429E+06
 9.52767E+05
 4.14219E+06
 9.87257E+05
 1.36694E+05
 2.41491E+06
 0.00000E+00
 0.00000E+00
 0.00000E+00
 2.00772E+06
 0.00000E+00
 0.00000E+00
 2.99248E+06
 0.00000E+00
 1.33776E+05
 3.03393E+06
 0.00000E+00
 3.37840E+06
 2.74392E+06
 0.00000E+00
 3.32782E+06
 2.88658E+06
 0.00000E+00
 4.04301E+05
 2.98815E+06
 1.10673E+06
 0.00000E+00
 1.40584E+06
 2.34450E+06
 1.08986E+06
 1.28539E+06
 0.00000E+00
 0.00000E+00
 0.00000E+00
 9.99533E+05
 5.20042E+05
 1.02733E+06
 0.00000E+00
 0.00000E+00
 0.00000E+00
 2.47126E+06
 1.86999E+06
 1.59171E+06
 2.87722E+06
 2.44925E+05
 2.89678E+06
 6.51206E+04
 0.00000E+00
 1.22954E+06
 0.00000E+00
 5.88835E+05
 1.74860E+06
 0.00000E+00
 4.58675E+03
 0.00000E+00
 1.00115E+06
 9.49347E+05
 1.94019E+06
 0.00000E+00
 8.73268E+05
 1.08897E+06
 7.07120E+03
 1.86377E+05
 6.41372E+04
 2.58758E+06
 1.27171E+06
 0.00000E+00
 0.00000E+00
 8.63304E+05
 1.58012E+06
 0.00000E+00
 1.19818E+05
 2.57065E+06
 1.22746E+01
 1.44624E+05
 1.94922E+06
 0.00000E+00
 0.00000E+00
 0.00000E+00
 1.26524E+06
 3.42837E+06
 2.66647E+04
 2.64953E+05
 1.48671E+04
 9.96604E+04
 4.32987E+04
 0.00000E+00
 2.19418E+06
 2.50331E+06
 7.63247E+05
 8.71467E+05
 2.06014E+06
 0.00000E+00
 1.96570E+06
 1.12251E+06
 0.00000E+00
 1.89122E+06
 9.35830E+04
 0.00000E+00
 1.40333E+04
 8.05133E+05
 6.13638E+05
 0.00000E+00
 1.67018E+06
 5.77848E+04
 4.28251E+06
 8.12008E+04
 0.00000E+00
 0.00000E+00
 1.20616E+06
 0.00000E+00
 0.00000E+00
 7.44649E+05
 0.00000E+00
 4.25155E+05
 0.00000E+00
 0.00000E+00
 3.29929E+06
 1.30869E+06
 1.99904E+06
 1.80421E+06
 1.18405E+06
 2.72535E+06
 1.24499E+04
 0.00000E+00
 0.00000E+00
 3.01636E+06
 1.49798E+06
 1.07835E+04
 3.85925E+06
 3.28013E+06
 7.45170E+05
 1.18066E+06
 8.20415E+05
 2.14672E+06
 6.83229E+05
 2.42910E+06
 1.71463E+06
 1.22334E+06
 2.99873E+06
 3.00531E+06
 1.65176E+06
 0.00000E+00
 3.36056E+06
 2.09070E+05
 6.23163E+03
 2.52532E+06
 2.27644E+06
 1.99178E+05
 7.30500E+05
 2.28433E+05
 3.17128E+04
 1.26442E+06
 4.62169E+05
 1.75754E+06
 8.91752E+05
 8.41945E+05
 1.40542E+05
 0.00000E+00
 2.75396E+05
 1.95619E+06
 0.00000E+00
 1.82088E+06
 6.26815E+03
 1.93131E+06
 1.46882E+06
 0.00000E+00
 0.00000E+00
 1.32953E+05
 6.41370E+03
 0.00000E+00
 0.00000E+00
 1.87342E+06
 2.18701E+04
 0.00000E+00
 0.00000E+00
 3.55727E+05
 2.66032E+04
 0.00000E+00
 0.00000E+00
 2.95966E+04
 3.81084E+05
 2.15078E+06
 9.45461E+04
 0.00000E+00
 0.00000E+00
 0.00000E+00
 0.00000E+00
 0.00000E+00
 8.09813E+04
 8.34310E+05
 0.00000E+00
 0.00000E+00
 8.97914E+05
 3.15477E+05
 0.00000E+00
 5.22933E+05
 4.01190E+06
 2.10554E+06
 2.41615E+06
 1.61085E+06
 1.85345E+06
 2.81884E+06
 0.00000E+00
 0.00000E+00
 0.00000E+00
 3.48634E+06
 1.38426E+04
 4.33455E+05
 1.59374E+05
 6.71981E+05
 1.19954E+05
 0.00000E+00
 5.33457E+04
 1.75664E+06
 0.00000E+00
 4.59397E+06
 6.14773E+05
 1.01784E+06
 0.00000E+00
 4.87178E+05
 9.72803E+03
 2.45610E+06
 1.01576E+06
 2.73009E+04
 1.54660E+06
 3.29402E+06
 0.00000E+00
 4.19415E+05
 1.55425E+06
 2.39700E+06
 2.02117E+06
 1.31283E+06
 0.00000E+00
 1.10590E+06
 1.41913E+05
 2.02754E+06
 1.18085E+06
 7.96510E+05
 1.57936E+06
 1.14100E+06
 1.60572E+06
 1.37244E+06
 1.11203E+06
 4.88890E+05
 0.00000E+00
 0.00000E+00
 2.26803E+06
 0.00000E+00
 0.00000E+00
 4.56406E+05
 2.31742E+06
 1.59625E+06
 1.76753E+06
 0.00000E+00
 2.48081E+06
 0.00000E+00
 0.00000E+00
 1.38638E+06
 0.00000E+00
 1.53480E+06
 2.43551E+06
 9.03454E+05
 0.00000E+00
 5.93582E+05
 0.00000E+00
 8.79114E+05
 1.71366E+05
 2.74857E+05
 0.00000E+00
 4.93891E+05
 2.49009E+06
 7.61711E+05
 8.37739E+05
 0.00000E+00
 0.00000E+00
 2.16704E+05
 0.00000E+00
 0.00000E+00
 1.79026E+05
 8.06408E+05
 0.00000E+00
 6.47450E+05
 0.00000E+00
 1.40106E+06
 0.00000E+00
 1.16509E+06
 2.78417E+05
 2.99543E+06
 0.00000E+00
 0.00000E+00
 0.00000E+00
 2.31790E+05
 1.16835E+06
 6.86396E+05
 6.48781E+05
 1.38257E+04
 0.00000E+00
 2.50525E+06
 0.00000E+00
 0.00000E+00
 1.96514E+06
 0.00000E+00
 1.40989E+06
 2.15827E+06
 3.46139E+06
 4.62519E+05
 3.19662E+04
 3.08787E+06
 3.86225E+06
 0.00000E+00
 1.69221E+06
 0.00000E+00
 2.52750E+06
 1.79396E+06
 1.36563E+06
 4.99515E+05
 0.00000E+00
 0.00000E+00
 6.91655E+05
 2.19543E+06
 9.21097E+04
 3.25892E+06
 1.19046E+06
 1.72657E+06
 3.92313E+06
 5.54144E+05
 1.69248E+05
 4.61548E+06
 2.48225E+06
 2.39627E+06
 1.11680E+06
 4.10106E+06
 4.04092E+06
 2.99233E+06
 3.18687E+04
 0.00000E+00
 1.41917E+06
 0.00000E+00
 1.08035E+06
 0.00000E+00
 1.85225E+06
 0.00000E+00
 0.00000E+00
 0.00000E+00
 1.64137E+06
 1.25847E+04
 3.24327E+06
 8.28599E+04
 0.00000E+00
 0.00000E+00
 0.00000E+00
 1.98897E+06
 1.92422E+06
 0.00000E+00
 2.32973E+06
 5.17799E+04
 2.04541E+06
 1.09611E+06
 2.58396E+06
 0.00000E+00
 2.43366E+06
 6.54693E+04
 3.00933E+06
 0.00000E+00
 0.00000E+00
 1.71109E+06
 1.86555E+06
 0.00000E+00
 1.36903E+06
 0.00000E+00
 0.00000E+00
 1.34610E+06
 0.00000E+00
 1.25680E+06
 0.00000E+00
 1.05620E+06
 2.06809E+04
 0.00000E+00
 0.00000E+00
 1.61740E+06
 6.83174E+05
 2.39892E+06
 0.00000E+00
 2.59541E+06
 2.47001E+06
 1.06719E+06
 1.89361E+06
 8.79344E+05
 1.86166E+06
 0.00000E+00
 1.85689E+06
 2.11709E+06
 1.14848E+06
 2.48929E+06
 9.17594E+05
 3.01973E+06
 0.00000E+00
 1.70428E+06
 8.59202E+05
 1.80209E+06
 1.16283E+05
 4.44041E+05
 1.58233E+06
 0.00000E+00
 9.77010E+05
 2.11896E+06
 1.11565E+04
 1.99642E+06
 1.65607E+06
 3.97033E+06
 0.00000E+00
 8.31986E+05
 0.00000E+00
 2.34202E+06
 8.61512E+04
 8.46735E+04
 1.23101E+06
 4.41255E+04
 1.30073E+05
 3.23476E+05
 1.73706E+06
 5.60972E+05
 1.38986E+06
 2.55717E+04
 1.08748E+06
 7.59624E+05
 3.72276E+06
 0.00000E+00
 2.97654E+06
 4.93755E+05
 2.62720E+06
 1.23781E+06
 0.00000E+00
 1.21319E+06
 2.44250E+06
 0.00000E+00
 9.81511E+03
 0.00000E+00
 7.80737E+05
 3.11088E+06
 0.00000E+00
 3.00126E+06
 1.60222E+06
 1.18940E+04
 1.79577E+05
 2.87408E+06
 1.41278E+06
 0.00000E+00
 3.60192E+05
 0.00000E+00
 2.41355E+06
 4.55203E+06
 1.08767E+06
 5.24747E+05
 4.34435E+06
 1.92131E+06
 0.00000E+00
 1.07582E+04
 0.00000E+00
 9.24968E+05
 3.63885E+06
 0.00000E+00
 0.00000E+00
 0.00000E+00
 1.29418E+06
 2.10902E+06
 2.26268E+06
 1.75847E+06
 1.52955E+06
 2.23897E+05
 1.75228E+06
 1.90441E+06
 0.00000E+00
 1.85484E+06
 0.00000E+00
 2.05822E+06
 2.92799E+06
 1.61910E+06
 6.52013E+05
 3.18694E+06
 2.74981E+06
 2.45234E+04
 2.15404E+06
 0.00000E+00
 0.00000E+00
 0.00000E+00
 1.01168E+04
 0.00000E+00
 3.50717E+06
 2.03433E+06
 4.09991E+04
 5.28308E+05
 2.07972E+06
 0.00000E+00
 1.16914E+06
 0.00000E+00
 1.95080E+06
 2.18430E+06
 2.02455E+06
 1.18782E+06
 2.90000E+06
 4.14271E+05
 1.52913E+04
 2.22812E+06
 6.88767E+05
 1.64794E+06
 1.15655E+06
 1.53324E+06
 5.99179E+05
 0.00000E+00
 0.00000E+00
 9.10422E+05
 0.00000E+00
 9.83995E+05
 1.57108E+06
 2.30117E+06
 3.59701E+06
 2.83374E+06
 0.00000E+00
 2.27716E+06
 2.50377E+04
 1.52886E+06
 1.12735E+06
 3.02160E+06
 0.00000E+00
 2.03883E+05
 2.31540E+06
 1.64233E+06
 9.26765E+05
 1.47263E+05
 2.11535E+06
 2.32076E+06
 2.18035E+06
 0.00000E+00
 2.99069E+05
 8.73087E+05
 2.75096E+06
 1.31815E+06
 4.10147E+05
 0.00000E+00
 0.00000E+00
 9.92291E+04
 1.90119E+05
 1.69232E+06
 5.35232E+05
 1.75669E+05
 1.04192E+05
 0.00000E+00
 0.00000E+00
 1.14796E+05
 1.91431E+06
 0.00000E+00
 5.08312E+05
 4.69448E+04
 0.00000E+00
 2.46241E+05
 6.17641E+05
 0.00000E+00
 1.81074E+06
 2.81632E+06
 5.84241E+05
 3.08325E+04
 2.95109E+05
 1.52620E+06
 8.85233E+05
 5.08213E+05
 2.10551E+06
 1.60312E+05
 4.40292E+06
 1.99291E+06
 6.85810E+05
 2.89729E+06
 1.86718E+06
 8.19666E+05
 2.17943E+06
 1.71441E+06
 7.67489E+04
 1.80592E+06
 1.94536E+04
 1.33978E+06
 4.94477E+05
 2.54057E+06
 1.11297E+05
 3.25987E+05
 0.00000E+00
 1.93060E+06
 4.53352E+06
 5.46229E+04
 1.09580E+05
 2.85631E+06
 2.35699E+05
 1.78992E+06
 0.00000E+00
 1.93418E+04
 2.26180E+06
 2.11119E+06
 1.05424E+06
 2.21049E+06
 2.57258E+06
 1.19729E+06
 2.09874E+05
 2.61396E+04
 3.38240E+06
 1.01974E+06
 0.00000E+00
 2.52323E+05
 1.83882E+05
 7.19341E+05
 2.51191E+06
 0.00000E+00
 9.83986E+05
 2.49781E+06
 1.56756E+04
 6.75295E+03
 2.85668E+06
 1.77372E+05
 2.49891E+06
 4.85058E+04
 9.73669E+04
 6.20508E+05
 6.82554E+05
 1.63942E+06
 2.35913E+06
 1.04465E+06
 2.41297E+05
 1.45405E+06
 5.57551E+04
 1.53991E+04
 1.04122E+06
 1.18672E+04
 4.95355E+05
 6.08348E+04
 0.00000E+00
 1.07414E+06
 0.00000E+00
 0.00000E+00
 0.00000E+00
 1.55240E+06
 1.34047E+05
 8.71406E+05
 7.69275E+05
 1.33698E+06
 1.45391E+04
 1.20123E+06
 4.47720E+05
 0.00000E+00
 2.66174E+06
 3.00030E+05
 1.95973E+06
 7.11906E+05
 1.00444E+06
 9.26566E+05
 3.06413E+06
 3.88808E+05
 2.76124E+06
 1.71321E+06
 1.58742E+06
 2.12425E+06
 4.52076E+04
 1.50915E+06
 1.92265E+06
 8.78027E+05
 2.00508E+05
 1.35576E+06
 1.33966E+06
 1.26220E+04
 2.37029E+04
 0.00000E+00
 1.19154E+06
 7.58012E+04
 1.62939E+06
 2.42694E+06
 2.21859E+05
 1.08314E+06
 2.80471E+05
 2.13564E+06
 0.00000E+00
 2.20651E+05
 6.76629E+05
 1.39396E+04
 2.28107E+06
 3.95391E+06
 4.12821E+05
 1.93441E+06
 9.93996E+05
 7.10113E+05
 6.64405E+04
 3.50201E+05
 1.18618E+06
 2.18832E+06
 1.48383E+05
 3.50940E+05
 3.54854E+05
 0.00000E+00
 3.48630E+06
 1.79284E+06
 1.80373E+05
 8.39802E+05
 1.57878E+06
 1.85373E+06
 1.45561E+05
 1.28721E+04
 1.79039E+06
 3.19558E+06
 2.87681E+06
 9.80311E+05
 9.41036E+05
 8.92495E+05
 4.67743E+05
 3.60603E+05
 2.29602E+06
 9.08313E+04
 2.29186E+06
 1.23287E+06
 0.00000E+00
 1.03445E+06
 4.90175E+04
 5.36176E+03
 1.66493E+06
 9.68315E+05
 4.11641E+05
 1.52810E+05
 2.60965E+05
 0.00000E+00
 1.56477E+06
 9.04860E+04
 0.00000E+00
 1.85566E+06
 1.97608E+06
 0.00000E+00
 1.88249E+06
 7.87617E+05
 2.37286E+06
 0.00000E+00
 2.71795E+06
 0.00000E+00
 2.64966E+06
 0.00000E+00
 2.81735E+06
 3.59956E+06
 0.00000E+00
 3.98706E+05
 6.66925E+05
 3.89958E+04
 2.53945E+05
 0.00000E+00
 3.96811E+06
 3.33663E+06
 0.00000E+00
 1.93016E+06
 0.00000E+00
 0.00000E+00
 0.00000E+00
 1.83239E+06
 0.00000E+00
 9.19430E+05
 1.12475E+06
 6.10624E+06
 0.00000E+00
 0.00000E+00
 1.73727E+06
 2.10109E+05
 1.31952E+06
 1.54576E+04
 1.86813E+06
 4.40933E+05
 1.05599E+06
 1.40285E+06
 2.75067E+06
 0.00000E+00
 6.32611E+05
 2.27525E+05
 2.97660E+04
 5.10491E+05
 6.80504E+04
 8.72251E+03
 2.20076E+06
 1.82948E+06
 5.87913E+04
 1.16611E+05
 4.09321E+06
 1.51369E+06
 1.55675E+05
 6.22333E+05
 2.26800E+06
 0.00000E+00
 9.53363E+05
 0.00000E+00
 3.74764E+05
 3.29669E+06
 2.01833E+06
 2.42803E+06
 7.51512E+05
 3.71028E+06
 4.63035E+06
 1.43442E+06
 1.93023E+06
 8.27446E+05
 3.52794E+05
 1.27618E+06
 2.04626E+06
 0.00000E+00
 3.38268E+05
 1.02092E+06
 5.30909E+05
 2.36363E+06
 3.12390E+06
 2.13034E+06
 4.34566E+05
 0.00000E+00
 7.15975E+05
 2.32174E+06
 0.00000E+00
 3.69649E+05
 1.24393E+06
 2.53843E+06
 1.12357E+06
 4.90167E+05
 1.99534E+06
 2.48372E+05
 3.72357E+06
 2.58712E+06
 0.00000E+00
 6.22150E+05
 0.00000E+00
 3.12418E+05
 1.50759E+06
 8.89288E+05
 6.50199E+05
 5.96091E+05
 2.01433E+05
 1.25292E+06
 4.76658E+05
 2.20630E+06
 2.24049E+06
 6.63528E+05
 3.98416E+05
 2.20639E+06
 1.37088E+06
 1.75318E+06
 2.84001E+06
 1.18784E+06
 1.52173E+06
 6.49464E+05
 1.99924E+06
 0.00000E+00
 7.84436E+05
 5.64379E+05
 1.56954E+06
 2.34284E+06
 5.61208E+05
 0.00000E+00
 3.62544E+05
 0.00000E+00
 4.18870E+05
 4.99174E+06
 0.00000E+00
 0.00000E+00
 1.11909E+06
 0.00000E+00
 2.11064E+06
 2.91963E+06
 1.39738E+06
 0.00000E+00
 0.00000E+00
 3.02669E+06
 0.00000E+00
 1.60145E+06
 0.00000E+00
 2.75863E+06
 2.48961E+05
 0.00000E+00
 2.58277E+06
 3.84481E+05
 7.22431E+05
 0.00000E+00
 9.14898E+05
 3.32831E+06
 9.26131E+05
 1.91294E+06
 1.22060E+05
 8.51609E+05
 8.33446E+05
 0.00000E+00
 2.76047E+04
 0.00000E+00
 1.55931E+06
 4.96058E+05
 0.00000E+00
 0.00000E+00
 1.10174E+05
 1.15174E+06
 0.00000E+00
 1.83798E+06
 3.04723E+04
 0.00000E+00
 0.00000E+00
 0.00000E+00
 2.17620E+05
 0.00000E+00
 4.92169E+05
 3.09245E+06
 0.00000E+00
 3.50691E+04
 2.70090E+04
 1.24238E+06
 1.30392E+06
 9.65407E+05
 0.00000E+00
 0.00000E+00
 1.52072E+06
 0.00000E+00
 1.16910E+06
 3.65850E+05
 0.00000E+00
 0.00000E+00
 0.00000E+00
 0.00000E+00
 1.97850E+06
 3.20658E+06
 0.00000E+00
 5.34828E+05
 0.00000E+00
 1.55370E+06
 7.25837E+05
 6.91853E+05
 4.93290E+05
 1.78661E+06
 3.15241E+06
 2.41632E+06
 4.75038E+05
 2.07820E+06
 2.07018E+06