/*--------------------------------*- C++ -*----------------------------------*\
| =========                 |                                                 |
| \\      /  F ield         | OpenFOAM: The Open Source CFD Toolbox           |
|  \\    /   O peration     | Version:  2206                                  |
|   \\  /    A nd           | Website:  www.openfoam.com                      |
|    \\/     M anipulation  |                                                 |
\*---------------------------------------------------------------------------*/
FoamFile
{
    version     2.0;
    format      ascii;
    arch        "LSB;label=32;scalar=64";
    class       volVectorField;
    location    "0";
    object      C;
}
// * * * * * * * * * * * * * * * * * * * * * * * * * * * * * * * * * * * * * //

dimensions      [0 1 0 0 0 0 0];

internalField   nonuniform List<vector> 
47277
(
(-0.0298159 -0.893566 -3.48663)
(-0.0294868 -0.883563 -3.48274)
(-0.0291581 -0.873562 -3.47885)
(-0.137825 -0.883618 -3.49112)
(-0.136268 -0.873742 -3.48724)
(-0.134711 -0.863867 -3.48337)
(-0.222128 -0.866301 -3.48993)
(-0.219641 -0.856626 -3.48606)
(-0.217154 -0.846953 -3.48218)
(-0.183227 -0.875509 -3.4656)
(-0.181163 -0.865743 -3.46367)
(-0.179098 -0.855979 -3.46175)
(-0.306811 -0.840042 -3.49128)
(-0.303373 -0.830638 -3.48739)
(-0.299935 -0.821234 -3.4835)
(-0.265973 -0.853884 -3.46578)
(-0.262991 -0.844339 -3.46383)
(-0.260009 -0.834795 -3.46189)
(-0.388907 -0.805331 -3.49202)
(-0.384551 -0.796314 -3.48813)
(-0.380196 -0.787297 -3.48424)
(-0.349208 -0.823333 -3.46786)
(-0.345299 -0.814127 -3.46592)
(-0.341391 -0.804922 -3.46397)
(-0.467034 -0.762684 -3.49183)
(-0.461806 -0.754144 -3.48794)
(-0.456578 -0.745606 -3.48405)
(-0.429307 -0.784559 -3.46841)
(-0.424507 -0.775786 -3.46647)
(-0.419707 -0.767014 -3.46452)
(-0.540396 -0.712586 -3.49125)
(-0.534346 -0.704607 -3.48736)
(-0.528297 -0.69663 -3.48347)
(-0.504907 -0.738188 -3.46764)
(-0.499263 -0.729933 -3.46569)
(-0.493619 -0.721679 -3.46375)
(-0.608464 -0.65542 -3.49082)
(-0.601652 -0.648082 -3.48693)
(-0.59484 -0.640744 -3.48304)
(-0.575442 -0.684626 -3.46663)
(-0.569009 -0.67697 -3.46468)
(-0.562576 -0.669315 -3.46274)
(-0.670602 -0.59169 -3.49059)
(-0.663094 -0.585065 -3.4867)
(-0.655586 -0.57844 -3.48281)
(-0.640454 -0.624222 -3.46596)
(-0.633293 -0.617242 -3.46402)
(-0.626132 -0.610262 -3.46208)
(-0.72615 -0.522025 -3.49048)
(-0.71802 -0.51618 -3.48659)
(-0.70989 -0.510336 -3.4827)
(-0.699292 -0.557508 -3.46563)
(-0.691473 -0.551274 -3.46369)
(-0.683655 -0.54504 -3.46174)
(-0.774511 -0.447142 -3.49044)
(-0.76584 -0.442136 -3.48655)
(-0.757169 -0.43713 -3.48266)
(-0.751287 -0.485169 -3.46549)
(-0.742886 -0.479744 -3.46354)
(-0.734486 -0.474319 -3.4616)
(-0.815182 -0.367807 -3.49042)
(-0.806056 -0.363689 -3.48653)
(-0.79693 -0.359572 -3.48264)
(-0.795852 -0.40797 -3.46542)
(-0.786953 -0.403408 -3.46348)
(-0.778055 -0.398847 -3.46153)
(-0.847752 -0.284816 -3.4904)
(-0.838261 -0.281628 -3.48651)
(-0.828771 -0.278439 -3.48263)
(-0.832516 -0.326708 -3.46538)
(-0.823207 -0.323055 -3.46344)
(-0.813899 -0.319402 -3.4615)
(-0.871897 -0.198996 -3.4904)
(-0.862135 -0.196768 -3.48651)
(-0.852374 -0.19454 -3.48262)
(-0.860906 -0.2422 -3.46536)
(-0.85128 -0.239492 -3.46342)
(-0.841655 -0.236784 -3.46147)
(-0.887377 -0.111199 -3.49039)
(-0.877442 -0.109954 -3.4865)
(-0.867507 -0.108709 -3.48261)
(-0.880742 -0.155286 -3.46535)
(-0.870893 -0.15355 -3.4634)
(-0.861046 -0.151813 -3.46146)
(-0.89404 -0.0222951 -3.49039)
(-0.884031 -0.0220455 -3.4865)
(-0.874022 -0.0217959 -3.48261)
(-0.891826 -0.0668273 -3.46534)
(-0.881854 -0.06608 -3.46339)
(-0.871883 -0.0653328 -3.46145)
(-0.891817 0.0668323 -3.49038)
(-0.881834 0.0660841 -3.48649)
(-0.871852 0.0653361 -3.48261)
(-0.894049 0.022298 -3.46533)
(-0.884052 0.0220487 -3.46339)
(-0.874057 0.0217994 -3.46144)
(-0.880732 0.155296 -3.49038)
(-0.870873 0.153558 -3.48649)
(-0.861015 0.15182 -3.48261)
(-0.887386 0.111204 -3.46533)
(-0.877465 0.10996 -3.46338)
(-0.867544 0.108717 -3.46144)
(-0.860892 0.242217 -3.49038)
(-0.851255 0.239506 -3.48649)
(-0.841619 0.236795 -3.4826)
(-0.871904 0.199005 -3.46533)
(-0.862156 0.19678 -3.46338)
(-0.852408 0.194555 -3.46144)
(-0.832497 0.326731 -3.49038)
(-0.823177 0.323073 -3.48649)
(-0.813857 0.319415 -3.4826)
(-0.847757 0.28483 -3.46533)
(-0.838278 0.281645 -3.46338)
(-0.8288 0.278461 -3.46144)
(-0.795828 0.407997 -3.49038)
(-0.786917 0.403429 -3.48649)
(-0.778008 0.398861 -3.4826)
(-0.815184 0.367824 -3.46533)
(-0.806069 0.363711 -3.46338)
(-0.796954 0.359598 -3.46144)
(-0.75125 0.485208 -3.49038)
(-0.742839 0.479775 -3.48649)
(-0.734429 0.474343 -3.4826)
(-0.77451 0.447162 -3.46533)
(-0.765849 0.442162 -3.46338)
(-0.757189 0.437162 -3.46144)
(-0.699206 0.557597 -3.49038)
(-0.691378 0.551355 -3.48649)
(-0.683551 0.545113 -3.4826)
(-0.726138 0.522056 -3.46533)
(-0.718019 0.516219 -3.46338)
(-0.7099 0.510382 -3.46144)
(-0.640213 0.624445 -3.49038)
(-0.633045 0.617454 -3.48649)
(-0.625879 0.610464 -3.4826)
(-0.67055 0.591762 -3.46533)
(-0.663053 0.585146 -3.46338)
(-0.655556 0.578529 -3.46144)
(-0.574856 0.685087 -3.49038)
(-0.56842 0.677417 -3.48649)
(-0.561985 0.669747 -3.4826)
(-0.608298 0.655587 -3.46533)
(-0.601496 0.648256 -3.46339)
(-0.594695 0.640927 -3.46144)
(-0.503787 0.738919 -3.49038)
(-0.498147 0.730646 -3.48649)
(-0.492507 0.722374 -3.4826)
(-0.539999 0.712896 -3.46533)
(-0.533961 0.704924 -3.46339)
(-0.527923 0.696953 -3.46144)
(-0.427712 0.785408 -3.49038)
(-0.422923 0.776616 -3.48649)
(-0.418135 0.767823 -3.48261)
(-0.466334 0.76312 -3.46533)
(-0.461119 0.754587 -3.46339)
(-0.455905 0.746055 -3.46144)
(-0.347385 0.824093 -3.49038)
(-0.343496 0.814868 -3.48649)
(-0.339608 0.805643 -3.48261)
(-0.388034 0.80576 -3.46533)
(-0.383696 0.796751 -3.46339)
(-0.379357 0.787743 -3.46144)
(-0.263605 0.854586 -3.49038)
(-0.260654 0.84502 -3.48649)
(-0.257704 0.835455 -3.48261)
(-0.305878 0.840392 -3.46533)
(-0.302458 0.830996 -3.46339)
(-0.299038 0.821601 -3.46144)
(-0.177206 0.876586 -3.49038)
(-0.175222 0.866773 -3.48649)
(-0.173238 0.856961 -3.4826)
(-0.220682 0.866672 -3.46533)
(-0.218215 0.856982 -3.46338)
(-0.215748 0.847293 -3.46144)
(-0.0890452 0.889873 -3.49038)
(-0.0880483 0.879911 -3.48649)
(-0.0870515 0.869949 -3.4826)
(-0.133293 0.884338 -3.46533)
(-0.131803 0.87445 -3.46338)
(-0.130313 0.864563 -3.46144)
(-8.4954e-07 0.894317 -3.49038)
(-8.4009e-07 0.884304 -3.48649)
(-8.30524e-07 0.874292 -3.4826)
(-0.04458 0.893215 -3.46533)
(-0.0440815 0.883227 -3.46338)
(-0.043583 0.87324 -3.46144)
(0.0890438 0.889873 -3.49038)
(0.0880469 0.879911 -3.48649)
(0.0870501 0.869949 -3.4826)
(0.0445768 0.893215 -3.46533)
(0.0440783 0.883227 -3.46338)
(0.0435799 0.87324 -3.46144)
(0.177205 0.876586 -3.49038)
(0.175221 0.866773 -3.48649)
(0.173237 0.856961 -3.48261)
(0.133291 0.884338 -3.46533)
(0.131801 0.87445 -3.46339)
(0.13031 0.864563 -3.46144)
(0.263605 0.854586 -3.49038)
(0.260654 0.84502 -3.48649)
(0.257703 0.835454 -3.48261)
(0.220681 0.866672 -3.46533)
(0.218214 0.856982 -3.46339)
(0.215746 0.847293 -3.46144)
(0.347385 0.824093 -3.49038)
(0.343496 0.814868 -3.48649)
(0.339608 0.805643 -3.48261)
(0.305878 0.840392 -3.46533)
(0.302458 0.830996 -3.46339)
(0.299038 0.821601 -3.46144)
(0.427712 0.785409 -3.49038)
(0.422924 0.776616 -3.48649)
(0.418136 0.767824 -3.4826)
(0.388034 0.80576 -3.46533)
(0.383696 0.796751 -3.46338)
(0.379358 0.787743 -3.46144)
(0.503788 0.738919 -3.49038)
(0.498147 0.730646 -3.48649)
(0.492508 0.722374 -3.4826)
(0.466334 0.76312 -3.46533)
(0.46112 0.754587 -3.46338)
(0.455906 0.746055 -3.46144)
(0.574856 0.685086 -3.49038)
(0.56842 0.677416 -3.48649)
(0.561984 0.669746 -3.4826)
(0.539999 0.712896 -3.46532)
(0.533961 0.704925 -3.46338)
(0.527923 0.696954 -3.46143)
(0.640212 0.624446 -3.49038)
(0.633044 0.617455 -3.48649)
(0.625877 0.610464 -3.4826)
(0.608297 0.655587 -3.46532)
(0.601495 0.648257 -3.46338)
(0.594693 0.640927 -3.46143)
(0.699206 0.557598 -3.49038)
(0.691378 0.551356 -3.48649)
(0.683551 0.545114 -3.4826)
(0.670549 0.591763 -3.46532)
(0.663052 0.585147 -3.46337)
(0.655555 0.578531 -3.46143)
(0.75125 0.485209 -3.49038)
(0.742839 0.479776 -3.48649)
(0.734429 0.474345 -3.4826)
(0.726137 0.522058 -3.46532)
(0.718018 0.516221 -3.46337)
(0.7099 0.510384 -3.46143)
(0.795827 0.407998 -3.49038)
(0.786917 0.40343 -3.48649)
(0.778008 0.398862 -3.4826)
(0.774509 0.447164 -3.46531)
(0.765848 0.442164 -3.46337)
(0.757189 0.437165 -3.46143)
(0.832496 0.326732 -3.49038)
(0.823176 0.323074 -3.48649)
(0.813856 0.319416 -3.4826)
(0.815183 0.367827 -3.46531)
(0.806068 0.363714 -3.46337)
(0.796953 0.359601 -3.46143)
(0.860891 0.242219 -3.49038)
(0.851253 0.239507 -3.48649)
(0.841616 0.236795 -3.4826)
(0.847756 0.284834 -3.46531)
(0.838277 0.281649 -3.46337)
(0.828798 0.278464 -3.46143)
(0.88073 0.155298 -3.49038)
(0.87087 0.153559 -3.48649)
(0.86101 0.151821 -3.4826)
(0.871903 0.19901 -3.46531)
(0.862154 0.196785 -3.46337)
(0.852406 0.194559 -3.46143)
(0.891816 0.066835 -3.49038)
(0.881832 0.0660867 -3.48649)
(0.871848 0.0653385 -3.4826)
(0.887385 0.111208 -3.46532)
(0.877462 0.109964 -3.46337)
(0.867541 0.108721 -3.46143)
(0.89404 -0.0222939 -3.49038)
(0.884031 -0.0220443 -3.48649)
(0.874023 -0.0217948 -3.4826)
(0.894048 0.0223 -3.46532)
(0.884052 0.0220506 -3.46337)
(0.874056 0.0218013 -3.46143)
(0.887377 -0.111203 -3.49038)
(0.877443 -0.109958 -3.48649)
(0.86751 -0.108714 -3.4826)
(0.891826 -0.0668321 -3.46532)
(0.881854 -0.0660848 -3.46337)
(0.871884 -0.0653376 -3.46143)
(0.871894 -0.199009 -3.49037)
(0.862134 -0.196782 -3.48648)
(0.852375 -0.194554 -3.4826)
(0.880739 -0.155304 -3.46531)
(0.870891 -0.153567 -3.46337)
(0.861045 -0.151831 -3.46143)
(0.847745 -0.28484 -3.49036)
(0.838255 -0.281651 -3.48647)
(0.828766 -0.278463 -3.48259)
(0.860896 -0.242236 -3.4653)
(0.85127 -0.239528 -3.46336)
(0.841646 -0.23682 -3.46141)
(0.815169 -0.367837 -3.49035)
(0.806043 -0.363719 -3.48646)
(0.796918 -0.359602 -3.48257)
(0.832494 -0.326761 -3.46527)
(0.823186 -0.323108 -3.46333)
(0.813879 -0.319454 -3.46138)
(0.774495 -0.44717 -3.49032)
(0.765824 -0.442163 -3.48643)
(0.757154 -0.437157 -3.48254)
(0.795823 -0.408028 -3.46523)
(0.786924 -0.403465 -3.46328)
(0.778027 -0.398904 -3.46134)
(0.726142 -0.522035 -3.4903)
(0.718012 -0.516191 -3.48641)
(0.709883 -0.510346 -3.48252)
(0.751263 -0.485207 -3.46518)
(0.742863 -0.479782 -3.46324)
(0.734463 -0.474357 -3.4613)
(0.670614 -0.591676 -3.49031)
(0.663106 -0.585051 -3.48642)
(0.655598 -0.578427 -3.48253)
(0.699297 -0.557505 -3.46518)
(0.691477 -0.551271 -3.46323)
(0.683658 -0.545038 -3.46129)
(0.608498 -0.655388 -3.49039)
(0.601685 -0.64805 -3.4865)
(0.594873 -0.640713 -3.48261)
(0.6405 -0.624176 -3.46527)
(0.633338 -0.617197 -3.46332)
(0.626177 -0.610218 -3.46138)
(0.540455 -0.712539 -3.49056)
(0.534404 -0.704561 -3.48667)
(0.528354 -0.696584 -3.48278)
(0.575536 -0.684547 -3.46551)
(0.569101 -0.676893 -3.46357)
(0.562667 -0.669239 -3.46162)
(0.467232 -0.762559 -3.49079)
(0.462 -0.754022 -3.4869)
(0.456769 -0.745484 -3.48301)
(0.505165 -0.738018 -3.46591)
(0.499517 -0.729765 -3.46396)
(0.493869 -0.721513 -3.46202)
(0.389677 -0.804954 -3.49107)
(0.385313 -0.795942 -3.48718)
(0.380949 -0.786931 -3.48328)
(0.430279 -0.784058 -3.46642)
(0.425467 -0.775291 -3.46447)
(0.420656 -0.766524 -3.46252)
(0.308736 -0.839328 -3.49142)
(0.305278 -0.829932 -3.48753)
(0.30182 -0.820537 -3.48364)
(0.351919 -0.822236 -3.46705)
(0.347984 -0.813043 -3.4651)
(0.344048 -0.80385 -3.46315)
(0.225338 -0.86544 -3.49183)
(0.222813 -0.855753 -3.48794)
(0.220288 -0.846066 -3.48404)
(0.271166 -0.852301 -3.46781)
(0.268133 -0.842772 -3.46586)
(0.2651 -0.833244 -3.46391)
(0.140232 -0.883201 -3.49137)
(0.138655 -0.873318 -3.48748)
(0.137078 -0.863435 -3.48359)
(0.188863 -0.874229 -3.46777)
(0.186746 -0.864455 -3.46582)
(0.184628 -0.854683 -3.46386)
(0.0548755 -0.892517 -3.4897)
(0.0542494 -0.882539 -3.48581)
(0.0536229 -0.872562 -3.48192)
(0.0251619 -0.893998 -3.46091)
(0.0248688 -0.884009 -3.45897)
(0.0245754 -0.874021 -3.45703)
(0.106348 -0.888051 -3.46564)
(0.105144 -0.878124 -3.46369)
(0.103941 -0.868197 -3.46174)
(-0.0265123 -0.893824 -3.38772)
(-0.026216 -0.883826 -3.38773)
(-0.0259197 -0.873828 -3.38774)
(-0.0267985 -0.893798 -3.20592)
(-0.0264996 -0.883802 -3.20592)
(-0.0262007 -0.873805 -3.20592)
(-0.0260745 -0.893863 -3.02707)
(-0.0257825 -0.883866 -3.02707)
(-0.0254906 -0.87387 -3.02707)
(-0.0258883 -0.893879 -2.84908)
(-0.0255985 -0.883883 -2.84908)
(-0.0253086 -0.873886 -2.84908)
(-0.0257712 -0.893889 -2.67099)
(-0.0254828 -0.883893 -2.67099)
(-0.0251945 -0.873896 -2.67099)
(-0.0257822 -0.893889 -2.49276)
(-0.0254939 -0.883892 -2.49276)
(-0.0252055 -0.873895 -2.49276)
(-0.0258148 -0.893886 -2.31449)
(-0.0255261 -0.883889 -2.31449)
(-0.0252374 -0.873892 -2.31449)
(-0.0258031 -0.893887 -2.1362)
(-0.0255146 -0.88389 -2.1362)
(-0.025226 -0.873893 -2.1362)
(-0.0257339 -0.893893 -1.95788)
(-0.0254462 -0.883896 -1.95788)
(-0.0251584 -0.873899 -1.95788)
(-0.025939 -0.893875 -1.77933)
(-0.0256492 -0.883878 -1.77933)
(-0.0253594 -0.873881 -1.77933)
(-0.0263987 -0.893834 -1.60085)
(-0.0261037 -0.883838 -1.60085)
(-0.0258087 -0.873841 -1.60085)
(-0.0261859 -0.893853 -1.42334)
(-0.0258978 -0.883856 -1.42334)
(-0.0256098 -0.873859 -1.42334)
(-0.0296999 -0.893521 -1.22973)
(-0.0293679 -0.883525 -1.22973)
(-0.0290358 -0.873528 -1.22973)
(-0.129424 -0.884832 -1.22585)
(-0.127972 -0.874939 -1.22585)
(-0.12652 -0.865047 -1.22585)
(-0.304906 -0.840681 -1.22647)
(-0.3015 -0.831286 -1.22647)
(-0.298093 -0.821892 -1.22647)
(-0.465918 -0.763305 -1.22662)
(-0.460711 -0.754776 -1.22662)
(-0.455504 -0.746247 -1.22662)
(-0.60819 -0.655605 -1.22613)
(-0.601394 -0.64828 -1.22613)
(-0.594598 -0.640954 -1.22613)
(-0.726103 -0.522004 -1.22598)
(-0.717989 -0.516171 -1.22598)
(-0.709876 -0.510339 -1.22598)
(-0.815134 -0.36779 -1.22599)
(-0.806026 -0.36368 -1.22599)
(-0.796918 -0.35957 -1.22599)
(-0.871846 -0.198993 -1.226)
(-0.862104 -0.196769 -1.226)
(-0.852362 -0.194546 -1.226)
(-0.893989 -0.0222968 -1.226)
(-0.884 -0.0220476 -1.226)
(-0.87401 -0.0217985 -1.226)
(-0.880682 0.155286 -1.22599)
(-0.870841 0.153551 -1.22599)
(-0.861 0.151816 -1.22599)
(-0.83245 0.326712 -1.22599)
(-0.823148 0.323061 -1.22599)
(-0.813846 0.319411 -1.22599)
(-0.751207 0.485181 -1.22599)
(-0.742813 0.47976 -1.22599)
(-0.734419 0.474338 -1.22599)
(-0.640176 0.62441 -1.22599)
(-0.633023 0.617433 -1.22599)
(-0.625869 0.610456 -1.22599)
(-0.503758 0.738879 -1.22599)
(-0.498129 0.730622 -1.22599)
(-0.4925 0.722366 -1.22599)
(-0.347363 0.824046 -1.22599)
(-0.343482 0.814838 -1.22599)
(-0.339601 0.80563 -1.22599)
(-0.177195 0.876536 -1.22599)
(-0.175215 0.866742 -1.22599)
(-0.173235 0.856947 -1.22599)
(-2.16112e-07 0.894267 -1.22599)
(-2.14892e-07 0.884274 -1.22599)
(-2.13672e-07 0.874282 -1.22599)
(0.177196 0.876536 -1.22599)
(0.175216 0.866741 -1.22599)
(0.173236 0.856947 -1.22599)
(0.347366 0.824045 -1.22599)
(0.343484 0.814837 -1.22599)
(0.339603 0.805629 -1.22599)
(0.50376 0.738877 -1.22599)
(0.498131 0.730621 -1.22599)
(0.492502 0.722364 -1.22599)
(0.640177 0.624409 -1.226)
(0.633024 0.617432 -1.226)
(0.62587 0.610455 -1.226)
(0.751208 0.485181 -1.226)
(0.742814 0.479759 -1.226)
(0.73442 0.474338 -1.226)
(0.83245 0.326713 -1.22599)
(0.823148 0.323062 -1.22599)
(0.813846 0.319411 -1.22599)
(0.880681 0.155287 -1.22599)
(0.87084 0.153552 -1.22599)
(0.861 0.151817 -1.22599)
(0.893989 -0.0222985 -1.226)
(0.884 -0.0220494 -1.226)
(0.87401 -0.0218002 -1.226)
(0.871844 -0.199001 -1.22601)
(0.862102 -0.196778 -1.22601)
(0.85236 -0.194554 -1.22601)
(0.815129 -0.367802 -1.22602)
(0.806021 -0.363692 -1.22602)
(0.796912 -0.359582 -1.22602)
(0.726103 -0.522004 -1.226)
(0.717989 -0.516171 -1.226)
(0.709876 -0.510339 -1.226)
(0.608265 -0.655536 -1.22603)
(0.601469 -0.648211 -1.22603)
(0.594672 -0.640886 -1.22603)
(0.466199 -0.763133 -1.22633)
(0.460989 -0.754606 -1.22633)
(0.455779 -0.746079 -1.22633)
(0.305294 -0.840541 -1.22691)
(0.301882 -0.831149 -1.22691)
(0.29847 -0.821756 -1.22691)
(0.133397 -0.884262 -1.22489)
(0.131914 -0.874379 -1.22489)
(0.130432 -0.864497 -1.22488)
(0.0495527 -0.892864 -1.21988)
(0.0489965 -0.882883 -1.21989)
(0.0484403 -0.872902 -1.21989)
(0.094129 -0.889514 -1.24477)
(0.0930832 -0.87957 -1.24477)
(0.0920374 -0.869626 -1.24476)
(0.0198465 -0.894341 -1.24961)
(0.0196222 -0.884335 -1.24961)
(0.0193979 -0.874329 -1.24961)
(0.0226178 -0.894146 -3.37404)
(0.0223617 -0.884147 -3.37404)
(0.0221055 -0.874147 -3.37404)
(0.0478484 -0.893078 -3.40682)
(0.0473034 -0.883094 -3.40682)
(0.0467583 -0.873109 -3.40681)
(0.021758 -0.89421 -3.28517)
(0.0215139 -0.88421 -3.28517)
(0.0212697 -0.87421 -3.28517)
(0.0443774 -0.893352 -3.31935)
(0.0438771 -0.883363 -3.31935)
(0.0433768 -0.873374 -3.31935)
(0.0218955 -0.8942 -3.19616)
(0.02165 -0.8842 -3.19616)
(0.0214044 -0.8742 -3.19616)
(0.0436548 -0.893406 -3.23063)
(0.0431651 -0.883416 -3.23063)
(0.0426754 -0.873426 -3.23063)
(0.0212003 -0.894251 -3.10689)
(0.0209631 -0.884251 -3.10689)
(0.0207259 -0.874251 -3.10689)
(0.0430971 -0.893446 -3.14151)
(0.0426143 -0.883456 -3.14151)
(0.0421316 -0.873466 -3.1415)
(0.0207249 -0.894284 -3.01753)
(0.020493 -0.884284 -3.01753)
(0.0202612 -0.874284 -3.01753)
(0.0419264 -0.89353 -3.05204)
(0.0414573 -0.88354 -3.05204)
(0.0409883 -0.873549 -3.05203)
(0.020657 -0.894289 -2.92831)
(0.0204255 -0.884289 -2.92831)
(0.0201941 -0.874289 -2.92831)
(0.0413831 -0.893569 -2.96262)
(0.0409198 -0.883578 -2.96262)
(0.0404564 -0.873587 -2.96262)
(0.0206892 -0.894287 -2.83922)
(0.0204573 -0.884287 -2.83922)
(0.0202253 -0.874286 -2.83922)
(0.0413474 -0.893571 -2.87347)
(0.040884 -0.88358 -2.87347)
(0.0404205 -0.873589 -2.87347)
(0.0206753 -0.894288 -2.75011)
(0.0204436 -0.884288 -2.75011)
(0.0202118 -0.874287 -2.75011)
(0.0413657 -0.89357 -2.78443)
(0.040902 -0.883579 -2.78443)
(0.0404383 -0.873588 -2.78443)
(0.0206237 -0.894291 -2.66095)
(0.0203927 -0.884291 -2.66095)
(0.0201616 -0.874291 -2.66095)
(0.0413001 -0.893574 -2.69533)
(0.0408374 -0.883584 -2.69533)
(0.0403746 -0.873593 -2.69533)
(0.0205767 -0.894295 -2.57177)
(0.0203462 -0.884294 -2.57177)
(0.0201158 -0.874294 -2.57177)
(0.0412015 -0.893581 -2.60615)
(0.0407401 -0.88359 -2.60615)
(0.0402786 -0.873599 -2.60615)
(0.0205538 -0.894296 -2.48257)
(0.0203237 -0.884296 -2.48257)
(0.0200935 -0.874296 -2.48257)
(0.0411317 -0.893586 -2.51693)
(0.040671 -0.883595 -2.51693)
(0.0402104 -0.873604 -2.51693)
(0.0205535 -0.894296 -2.39339)
(0.0203233 -0.884296 -2.39339)
(0.0200931 -0.874296 -2.39339)
(0.0411085 -0.893588 -2.42771)
(0.0406481 -0.883597 -2.42771)
(0.0401878 -0.873606 -2.42771)
(0.0205657 -0.894295 -2.30421)
(0.0203354 -0.884295 -2.30421)
(0.020105 -0.874295 -2.30421)
(0.0411204 -0.893587 -2.33851)
(0.0406598 -0.883596 -2.33851)
(0.0401993 -0.873605 -2.33851)
(0.0205798 -0.894294 -2.21504)
(0.0203493 -0.884294 -2.21504)
(0.0201189 -0.874294 -2.21504)
(0.0411467 -0.893585 -2.24932)
(0.0406859 -0.883594 -2.24932)
(0.040225 -0.873603 -2.24932)
(0.020588 -0.894294 -2.12589)
(0.0203574 -0.884294 -2.12589)
(0.0201269 -0.874293 -2.12589)
(0.0411689 -0.893584 -2.16016)
(0.0407079 -0.883593 -2.16016)
(0.0402469 -0.873601 -2.16016)
(0.0205814 -0.894294 -2.03677)
(0.0203511 -0.884294 -2.03677)
(0.0201207 -0.874294 -2.03677)
(0.0411705 -0.893583 -2.07105)
(0.0407096 -0.883592 -2.07105)
(0.0402487 -0.873601 -2.07105)
(0.0205154 -0.894299 -1.94781)
(0.0202859 -0.884298 -1.94781)
(0.0200565 -0.874298 -1.94781)
(0.0410979 -0.893588 -1.98213)
(0.0406381 -0.883597 -1.98213)
(0.0401784 -0.873606 -1.98213)
(0.0201925 -0.894321 -1.85933)
(0.0199661 -0.88432 -1.85933)
(0.0197397 -0.87432 -1.85933)
(0.040709 -0.893615 -1.89385)
(0.0402532 -0.883624 -1.89385)
(0.0397974 -0.873632 -1.89385)
(0.0191265 -0.894391 -1.77188)
(0.0189063 -0.884391 -1.77188)
(0.018686 -0.87439 -1.77188)
(0.0393204 -0.893708 -1.80709)
(0.0388738 -0.883716 -1.80709)
(0.0384271 -0.873724 -1.80708)
(0.019407 -0.894373 -1.68377)
(0.019189 -0.884371 -1.68377)
(0.0189711 -0.87437 -1.68378)
(0.0385346 -0.89376 -1.72069)
(0.0380965 -0.883768 -1.72069)
(0.0376584 -0.873775 -1.72069)
(0.0208569 -0.894275 -1.59706)
(0.020619 -0.884275 -1.59706)
(0.0203811 -0.874274 -1.59706)
(0.0402648 -0.893643 -1.63503)
(0.039809 -0.883651 -1.63503)
(0.0393533 -0.873659 -1.63503)
(0.0212539 -0.894247 -1.5089)
(0.0210125 -0.884247 -1.50891)
(0.0207712 -0.874247 -1.50891)
(0.0421117 -0.893518 -1.54932)
(0.0416325 -0.883527 -1.54932)
(0.0411533 -0.873537 -1.54932)
(0.0244489 -0.894 -1.42097)
(0.0241793 -0.884001 -1.42097)
(0.0239098 -0.874002 -1.42097)
(0.0457024 -0.893243 -1.46238)
(0.0451915 -0.883253 -1.46239)
(0.0446806 -0.873263 -1.4624)
(0.0242173 -0.894016 -1.33368)
(0.0239508 -0.884011 -1.33367)
(0.0236842 -0.874005 -1.33367)
(0.0440621 -0.893356 -1.29412)
(0.0435713 -0.883358 -1.29412)
(0.0430805 -0.87336 -1.29412)
(0.048668 -0.893015 -1.37633)
(0.0481319 -0.883025 -1.37633)
(0.0475959 -0.873035 -1.37633)
(-0.0702954 -0.890746 -1.25557)
(-0.0695048 -0.880783 -1.25557)
(-0.0687142 -0.87082 -1.25557)
(-0.0530523 -0.892641 -3.16061)
(-0.0524597 -0.882658 -3.16061)
(-0.0518671 -0.872674 -3.16061)
(-0.0262538 -0.893847 -3.11623)
(-0.0259601 -0.88385 -3.11623)
(-0.0256664 -0.873854 -3.11623)
(-0.0278382 -0.893702 -3.29651)
(-0.0275315 -0.883705 -3.2965)
(-0.0272248 -0.873709 -3.2965)
(-0.0523282 -0.892705 -3.07093)
(-0.0517426 -0.882722 -3.07092)
(-0.0511569 -0.872738 -3.07092)
(-0.0543499 -0.892521 -3.34437)
(-0.0537468 -0.882537 -3.34437)
(-0.0531438 -0.872553 -3.34438)
(-0.0259887 -0.89387 -2.93807)
(-0.0256977 -0.883874 -2.93807)
(-0.0254067 -0.873877 -2.93807)
(-0.0258065 -0.893886 -2.76008)
(-0.0255177 -0.88389 -2.76008)
(-0.0252289 -0.873893 -2.76008)
(-0.0257658 -0.89389 -2.58188)
(-0.0254775 -0.883893 -2.58188)
(-0.0251893 -0.873896 -2.58188)
(-0.0258003 -0.893887 -2.40363)
(-0.0255118 -0.88389 -2.40363)
(-0.0252232 -0.873893 -2.40363)
(-0.0258173 -0.893885 -2.22535)
(-0.0255285 -0.883889 -2.22535)
(-0.0252398 -0.873892 -2.22535)
(-0.0257682 -0.89389 -2.04706)
(-0.02548 -0.883893 -2.04706)
(-0.0251918 -0.873896 -2.04706)
(-0.0257641 -0.89389 -1.86864)
(-0.0254761 -0.883893 -1.86864)
(-0.0251881 -0.873896 -1.86864)
(-0.0262367 -0.893849 -1.69002)
(-0.0259436 -0.883852 -1.69002)
(-0.0256506 -0.873855 -1.69002)
(-0.0261708 -0.893854 -1.51192)
(-0.0258779 -0.883858 -1.51192)
(-0.025585 -0.873861 -1.51191)
(-0.0245364 -0.89399 -1.33762)
(-0.0242652 -0.883985 -1.33763)
(-0.0239941 -0.87398 -1.33764)
(-0.171189 -0.877628 -1.25266)
(-0.169267 -0.867818 -1.25266)
(-0.167345 -0.858009 -1.25266)
(-0.218517 -0.867151 -1.22682)
(-0.216071 -0.857458 -1.22682)
(-0.213625 -0.847764 -1.22682)
(-0.260493 -0.855419 -1.25328)
(-0.25758 -0.845861 -1.25328)
(-0.254667 -0.836303 -1.25328)
(-0.387409 -0.805995 -1.22672)
(-0.38308 -0.796988 -1.22672)
(-0.378751 -0.787982 -1.22672)
(-0.539761 -0.713002 -1.22635)
(-0.533729 -0.705035 -1.22635)
(-0.527697 -0.697068 -1.22635)
(-0.6705 -0.591729 -1.22602)
(-0.663007 -0.585117 -1.22602)
(-0.655515 -0.578505 -1.22602)
(-0.774469 -0.447115 -1.22598)
(-0.765815 -0.442119 -1.22598)
(-0.757161 -0.437123 -1.22598)
(-0.847702 -0.284807 -1.22599)
(-0.83823 -0.281625 -1.22599)
(-0.828757 -0.278442 -1.22599)
(-0.887327 -0.111198 -1.226)
(-0.877412 -0.109955 -1.226)
(-0.867497 -0.108713 -1.226)
(-0.891767 0.0668266 -1.22599)
(-0.881802 0.0660798 -1.22599)
(-0.871837 0.0653331 -1.22599)
(-0.860843 0.242203 -1.22599)
(-0.851224 0.239496 -1.22599)
(-0.841605 0.23679 -1.22599)
(-0.795783 0.407974 -1.22599)
(-0.786891 0.403415 -1.22599)
(-0.777999 0.398857 -1.22599)
(-0.699166 0.557566 -1.22599)
(-0.691354 0.551336 -1.22599)
(-0.683541 0.545106 -1.22599)
(-0.574824 0.685049 -1.22599)
(-0.5684 0.677394 -1.22599)
(-0.561977 0.669739 -1.22599)
(-0.427686 0.785365 -1.22599)
(-0.422907 0.776589 -1.22599)
(-0.418128 0.767814 -1.22599)
(-0.263589 0.854538 -1.22599)
(-0.260644 0.844989 -1.22599)
(-0.257698 0.83544 -1.22599)
(-0.0890403 0.889823 -1.22599)
(-0.0880454 0.87988 -1.22599)
(-0.0870504 0.869937 -1.22599)
(0.0890404 0.889823 -1.22599)
(0.0880454 0.87988 -1.22599)
(0.0870505 0.869937 -1.22599)
(0.263591 0.854537 -1.22599)
(0.260646 0.844988 -1.22599)
(0.2577 0.83544 -1.22599)
(0.427689 0.785364 -1.22599)
(0.42291 0.776588 -1.22599)
(0.418131 0.767812 -1.22599)
(0.574825 0.685047 -1.226)
(0.568402 0.677392 -1.226)
(0.561979 0.669737 -1.226)
(0.699167 0.557566 -1.226)
(0.691354 0.551335 -1.226)
(0.683542 0.545105 -1.226)
(0.795783 0.407974 -1.226)
(0.786891 0.403415 -1.226)
(0.777999 0.398857 -1.226)
(0.860843 0.242204 -1.22599)
(0.851224 0.239497 -1.22599)
(0.841605 0.236791 -1.22599)
(0.891767 0.0668265 -1.22599)
(0.881802 0.0660797 -1.22599)
(0.871837 0.065333 -1.22599)
(0.887326 -0.111204 -1.226)
(0.877411 -0.109961 -1.226)
(0.867496 -0.108719 -1.226)
(0.847698 -0.284819 -1.22602)
(0.838226 -0.281637 -1.22602)
(0.828753 -0.278454 -1.22602)
(0.774463 -0.447125 -1.22602)
(0.765809 -0.442129 -1.22602)
(0.757155 -0.437133 -1.22602)
(0.670523 -0.591703 -1.226)
(0.663031 -0.585091 -1.226)
(0.655538 -0.578479 -1.226)
(0.539928 -0.712875 -1.22614)
(0.533895 -0.70491 -1.22614)
(0.527861 -0.696944 -1.22614)
(0.387743 -0.805834 -1.22662)
(0.38341 -0.79683 -1.22662)
(0.379077 -0.787826 -1.22662)
(0.219649 -0.866871 -1.22722)
(0.217193 -0.857185 -1.22722)
(0.214736 -0.847499 -1.22722)
(-0.0516204 -0.892767 -2.18078)
(-0.051043 -0.882783 -2.18078)
(-0.0504657 -0.872799 -2.18078)
(-0.0520631 -0.892729 -2.98193)
(-0.0514802 -0.882745 -2.98193)
(-0.0508973 -0.872761 -2.98193)
(-0.0516151 -0.892768 -2.35903)
(-0.0510378 -0.882784 -2.35903)
(-0.0504605 -0.872799 -2.35903)
(-0.0563188 -0.892368 -3.44631)
(-0.0556938 -0.882374 -3.44437)
(-0.0550692 -0.872379 -3.44242)
(-0.0516948 -0.892761 -2.80426)
(-0.0511162 -0.882777 -2.80426)
(-0.0505375 -0.872793 -2.80426)
(-0.0515369 -0.892775 -2.62631)
(-0.0509603 -0.88279 -2.6263)
(-0.0503838 -0.872806 -2.6263)
(-0.0515825 -0.892771 -2.44814)
(-0.0510056 -0.882787 -2.44814)
(-0.0504286 -0.872802 -2.44814)
(-0.051632 -0.892766 -2.26991)
(-0.0510545 -0.882782 -2.26991)
(-0.0504771 -0.872798 -2.26991)
(-0.0515713 -0.892772 -2.09165)
(-0.0509945 -0.882787 -2.09165)
(-0.0504177 -0.872803 -2.09165)
(-0.0514981 -0.892778 -1.91324)
(-0.0509222 -0.882794 -1.91324)
(-0.0503464 -0.872809 -1.91324)
(-0.0521755 -0.892719 -1.73439)
(-0.0515927 -0.882735 -1.73439)
(-0.0510098 -0.872751 -1.73439)
(-0.0525694 -0.892684 -1.55612)
(-0.0519815 -0.8827 -1.55612)
(-0.0513936 -0.872717 -1.55612)
(-0.0507244 -0.892842 -1.38264)
(-0.0501652 -0.882855 -1.38265)
(-0.049606 -0.872867 -1.38267)
(-0.345814 -0.824678 -1.25318)
(-0.341951 -0.815463 -1.25318)
(-0.338088 -0.806247 -1.25318)
(-0.503172 -0.739265 -1.25297)
(-0.497549 -0.731005 -1.25297)
(-0.491925 -0.722745 -1.25296)
(-0.640105 -0.624477 -1.25214)
(-0.632952 -0.617499 -1.25214)
(-0.6258 -0.610522 -1.25214)
(-0.751231 -0.485144 -1.25196)
(-0.742837 -0.479723 -1.25196)
(-0.734443 -0.474302 -1.25196)
(-0.832456 -0.326697 -1.25197)
(-0.823154 -0.323046 -1.25197)
(-0.813852 -0.319396 -1.25197)
(-0.880681 -0.155289 -1.25198)
(-0.87084 -0.153553 -1.25198)
(-0.860999 -0.151818 -1.25198)
(-0.893989 0.0222905 -1.25198)
(-0.884 0.0220414 -1.25198)
(-0.87401 0.0217923 -1.25198)
(-0.871847 0.19899 -1.25197)
(-0.862104 0.196767 -1.25197)
(-0.852362 0.194543 -1.25197)
(-0.81513 0.3678 -1.25197)
(-0.806021 0.36369 -1.25197)
(-0.796913 0.359581 -1.25197)
(-0.726089 0.522023 -1.25196)
(-0.717976 0.51619 -1.25196)
(-0.709863 0.510357 -1.25196)
(-0.608256 0.655544 -1.25196)
(-0.601459 0.648219 -1.25196)
(-0.594662 0.640894 -1.25196)
(-0.466301 0.763071 -1.25196)
(-0.461091 0.754544 -1.25196)
(-0.45588 0.746017 -1.25196)
(-0.305856 0.840337 -1.25197)
(-0.302438 0.830947 -1.25197)
(-0.29902 0.821557 -1.25197)
(-0.133283 0.884279 -1.25197)
(-0.131794 0.874398 -1.25197)
(-0.130305 0.864517 -1.25197)
(0.0445754 0.893155 -1.25197)
(0.0440773 0.883175 -1.25197)
(0.0435792 0.873195 -1.25197)
(0.220669 0.866613 -1.25197)
(0.218203 0.85693 -1.25197)
(0.215737 0.847246 -1.25197)
(0.388011 0.805705 -1.25197)
(0.383676 0.796702 -1.25197)
(0.37934 0.787699 -1.25197)
(0.539966 0.712847 -1.25198)
(0.533932 0.704882 -1.25198)
(0.527898 0.696916 -1.25198)
(0.670506 0.591722 -1.25198)
(0.663014 0.58511 -1.25198)
(0.655521 0.578498 -1.25198)
(0.774458 0.447133 -1.25198)
(0.765804 0.442137 -1.25198)
(0.757151 0.43714 -1.25198)
(0.8477 0.284812 -1.25198)
(0.838228 0.28163 -1.25198)
(0.828756 0.278447 -1.25198)
(0.887327 0.111194 -1.25198)
(0.877412 0.109951 -1.25198)
(0.867497 0.108709 -1.25198)
(0.891766 -0.0668397 -1.25199)
(0.881801 -0.0660929 -1.25199)
(0.871836 -0.065346 -1.25199)
(0.860839 -0.242219 -1.25202)
(0.85122 -0.239512 -1.25202)
(0.841601 -0.236806 -1.25202)
(0.795787 -0.407967 -1.25203)
(0.786895 -0.403408 -1.25203)
(0.778003 -0.39885 -1.25203)
(0.699198 -0.557527 -1.252)
(0.691385 -0.551297 -1.252)
(0.683572 -0.545067 -1.252)
(0.574799 -0.685066 -1.25216)
(0.568376 -0.677411 -1.25216)
(0.561952 -0.669756 -1.25216)
(0.427319 -0.785555 -1.25294)
(0.422543 -0.776778 -1.25294)
(0.417767 -0.768 -1.25294)
(0.262008 -0.854999 -1.25412)
(0.259078 -0.845446 -1.25412)
(0.256148 -0.835892 -1.25412)
(-0.051548 -0.892774 -2.53723)
(-0.0509713 -0.882789 -2.53723)
(-0.0503947 -0.872805 -2.53723)
(-0.0515021 -0.892778 -2.00249)
(-0.0509261 -0.882793 -2.00249)
(-0.0503501 -0.872809 -2.00249)
(-0.0517031 -0.89276 -1.82385)
(-0.0511252 -0.882776 -1.82385)
(-0.0505473 -0.872792 -1.82385)
(-0.0526352 -0.892678 -1.64506)
(-0.0520472 -0.882694 -1.64506)
(-0.0514591 -0.872711 -1.64507)
(-0.0523562 -0.892703 -1.46777)
(-0.0517753 -0.882718 -1.46777)
(-0.0511943 -0.872734 -1.46778)
(-0.699174 -0.557554 -1.252)
(-0.691362 -0.551324 -1.252)
(-0.683549 -0.545093 -1.252)
(-0.795799 -0.407945 -1.25196)
(-0.786906 -0.403387 -1.25196)
(-0.778014 -0.398828 -1.25196)
(-0.860845 -0.242198 -1.25198)
(-0.851226 -0.239492 -1.25198)
(-0.841607 -0.236785 -1.25198)
(-0.891766 -0.066832 -1.25198)
(-0.881802 -0.0660852 -1.25198)
(-0.871837 -0.0653384 -1.25198)
(-0.887327 0.111193 -1.25198)
(-0.877412 0.10995 -1.25198)
(-0.867497 0.108708 -1.25198)
(-0.847701 0.284811 -1.25197)