/*--------------------------------*- C++ -*----------------------------------*\
| =========                 |                                                 |
| \\      /  F ield         | OpenFOAM: The Open Source CFD Toolbox           |
|  \\    /   O peration     | Version:  2206                                  |
|   \\  /    A nd           | Website:  www.openfoam.com                      |
|    \\/     M anipulation  |                                                 |
\*---------------------------------------------------------------------------*/
FoamFile
{
    version     2.0;
    format      ascii;
    arch        "LSB;label=32;scalar=64";
    class       volScalarField;
    location    "0";
    object      Cx;
}
// * * * * * * * * * * * * * * * * * * * * * * * * * * * * * * * * * * * * * //

dimensions      [0 1 0 0 0 0 0];

internalField   nonuniform List<scalar> 
47277
(
-0.0298159
-0.0294868
-0.0291581
-0.137825
-0.136268
-0.134711
-0.222128
-0.219641
-0.217154
-0.183227
-0.181163
-0.179098
-0.306811
-0.303373
-0.299935
-0.265973
-0.262991
-0.260009
-0.388907
-0.384551
-0.380196
-0.349208
-0.345299
-0.341391
-0.467034
-0.461806
-0.456578
-0.429307
-0.424507
-0.419707
-0.540396
-0.534346
-0.528297
-0.504907
-0.499263
-0.493619
-0.608464
-0.601652
-0.59484
-0.575442
-0.569009
-0.562576
-0.670602
-0.663094
-0.655586
-0.640454
-0.633293
-0.626132
-0.72615
-0.71802
-0.70989
-0.699292
-0.691473
-0.683655
-0.774511
-0.76584
-0.757169
-0.751287
-0.742886
-0.734486
-0.815182
-0.806056
-0.79693
-0.795852
-0.786953
-0.778055
-0.847752
-0.838261
-0.828771
-0.832516
-0.823207
-0.813899
-0.871897
-0.862135
-0.852374
-0.860906
-0.85128
-0.841655
-0.887377
-0.877442
-0.867507
-0.880742
-0.870893
-0.861046
-0.89404
-0.884031
-0.874022
-0.891826
-0.881854
-0.871883
-0.891817
-0.881834
-0.871852
-0.894049
-0.884052
-0.874057
-0.880732
-0.870873
-0.861015
-0.887386
-0.877465
-0.867544
-0.860892
-0.851255
-0.841619
-0.871904
-0.862156
-0.852408
-0.832497
-0.823177
-0.813857
-0.847757
-0.838278
-0.8288
-0.795828
-0.786917
-0.778008
-0.815184
-0.806069
-0.796954
-0.75125
-0.742839
-0.734429
-0.77451
-0.765849
-0.757189
-0.699206
-0.691378
-0.683551
-0.726138
-0.718019
-0.7099
-0.640213
-0.633045
-0.625879
-0.67055
-0.663053
-0.655556
-0.574856
-0.56842
-0.561985
-0.608298
-0.601496
-0.594695
-0.503787
-0.498147
-0.492507
-0.539999
-0.533961
-0.527923
-0.427712
-0.422923
-0.418135
-0.466334
-0.461119
-0.455905
-0.347385
-0.343496
-0.339608
-0.388034
-0.383696
-0.379357
-0.263605
-0.260654
-0.257704
-0.305878
-0.302458
-0.299038
-0.177206
-0.175222
-0.173238
-0.220682
-0.218215
-0.215748
-0.0890452
-0.0880483
-0.0870515
-0.133293
-0.131803
-0.130313
-8.4954e-07
-8.4009e-07
-8.30524e-07
-0.04458
-0.0440815
-0.043583
0.0890438
0.0880469
0.0870501
0.0445768
0.0440783
0.0435799
0.177205
0.175221
0.173237
0.133291
0.131801
0.13031
0.263605
0.260654
0.257703
0.220681
0.218214
0.215746
0.347385
0.343496
0.339608
0.305878
0.302458
0.299038
0.427712
0.422924
0.418136
0.388034
0.383696
0.379358
0.503788
0.498147
0.492508
0.466334
0.46112
0.455906
0.574856
0.56842
0.561984
0.539999
0.533961
0.527923
0.640212
0.633044
0.625877
0.608297
0.601495
0.594693
0.699206
0.691378
0.683551
0.670549
0.663052
0.655555
0.75125
0.742839
0.734429
0.726137
0.718018
0.7099
0.795827
0.786917
0.778008
0.774509
0.765848
0.757189
0.832496
0.823176
0.813856
0.815183
0.806068
0.796953
0.860891
0.851253
0.841616
0.847756
0.838277
0.828798
0.88073
0.87087
0.86101
0.871903
0.862154
0.852406
0.891816
0.881832
0.871848
0.887385
0.877462
0.867541
0.89404
0.884031
0.874023
0.894048
0.884052
0.874056
0.887377
0.877443
0.86751
0.891826
0.881854
0.871884
0.871894
0.862134
0.852375
0.880739
0.870891
0.861045
0.847745
0.838255
0.828766
0.860896
0.85127
0.841646
0.815169
0.806043
0.796918
0.832494
0.823186
0.813879
0.774495
0.765824
0.757154
0.795823
0.786924
0.778027
0.726142
0.718012
0.709883
0.751263
0.742863
0.734463
0.670614
0.663106
0.655598
0.699297
0.691477
0.683658
0.608498
0.601685
0.594873
0.6405
0.633338
0.626177
0.540455
0.534404
0.528354
0.575536
0.569101
0.562667
0.467232
0.462
0.456769
0.505165
0.499517
0.493869
0.389677
0.385313
0.380949
0.430279
0.425467
0.420656
0.308736
0.305278
0.30182
0.351919
0.347984
0.344048
0.225338
0.222813
0.220288
0.271166
0.268133
0.2651
0.140232
0.138655
0.137078
0.188863
0.186746
0.184628
0.0548755
0.0542494
0.0536229
0.0251619
0.0248688
0.0245754
0.106348
0.105144
0.103941
-0.0265123
-0.026216
-0.0259197
-0.0267985
-0.0264996
-0.0262007
-0.0260745
-0.0257825
-0.0254906
-0.0258883
-0.0255985
-0.0253086
-0.0257712
-0.0254828
-0.0251945
-0.0257822
-0.0254939
-0.0252055
-0.0258148
-0.0255261
-0.0252374
-0.0258031
-0.0255146
-0.025226
-0.0257339
-0.0254462
-0.0251584
-0.025939
-0.0256492
-0.0253594
-0.0263987
-0.0261037
-0.0258087
-0.0261859
-0.0258978
-0.0256098
-0.0296999
-0.0293679
-0.0290358
-0.129424
-0.127972
-0.12652
-0.304906
-0.3015
-0.298093
-0.465918
-0.460711
-0.455504
-0.60819
-0.601394
-0.594598
-0.726103
-0.717989
-0.709876
-0.815134
-0.806026
-0.796918
-0.871846
-0.862104
-0.852362
-0.893989
-0.884
-0.87401
-0.880682
-0.870841
-0.861
-0.83245
-0.823148
-0.813846
-0.751207
-0.742813
-0.734419
-0.640176
-0.633023
-0.625869
-0.503758
-0.498129
-0.4925
-0.347363
-0.343482
-0.339601
-0.177195
-0.175215
-0.173235
-2.16112e-07
-2.14892e-07
-2.13672e-07
0.177196
0.175216
0.173236
0.347366
0.343484
0.339603
0.50376
0.498131
0.492502
0.640177
0.633024
0.62587
0.751208
0.742814
0.73442
0.83245
0.823148
0.813846
0.880681
0.87084
0.861
0.893989
0.884
0.87401
0.871844
0.862102
0.85236
0.815129
0.806021
0.796912
0.726103
0.717989
0.709876
0.608265
0.601469
0.594672
0.466199
0.460989
0.455779
0.305294
0.301882
0.29847
0.133397
0.131914
0.130432
0.0495527
0.0489965
0.0484403
0.094129
0.0930832
0.0920374
0.0198465
0.0196222
0.0193979
0.0226178
0.0223617
0.0221055
0.0478484
0.0473034
0.0467583
0.021758
0.0215139
0.0212697
0.0443774
0.0438771
0.0433768
0.0218955
0.02165
0.0214044
0.0436548
0.0431651
0.0426754
0.0212003
0.0209631
0.0207259
0.0430971
0.0426143
0.0421316
0.0207249
0.020493
0.0202612
0.0419264
0.0414573
0.0409883
0.020657
0.0204255
0.0201941
0.0413831
0.0409198
0.0404564
0.0206892
0.0204573
0.0202253
0.0413474
0.040884
0.0404205
0.0206753
0.0204436
0.0202118
0.0413657
0.040902
0.0404383
0.0206237
0.0203927
0.0201616
0.0413001
0.0408374
0.0403746
0.0205767
0.0203462
0.0201158
0.0412015
0.0407401
0.0402786
0.0205538
0.0203237
0.0200935
0.0411317
0.040671
0.0402104
0.0205535
0.0203233
0.0200931
0.0411085
0.0406481
0.0401878
0.0205657
0.0203354
0.020105
0.0411204
0.0406598
0.0401993
0.0205798
0.0203493
0.0201189
0.0411467
0.0406859
0.040225
0.020588
0.0203574
0.0201269
0.0411689
0.0407079
0.0402469
0.0205814
0.0203511
0.0201207
0.0411705
0.0407096
0.0402487
0.0205154
0.0202859
0.0200565
0.0410979
0.0406381
0.0401784
0.0201925
0.0199661
0.0197397
0.040709
0.0402532
0.0397974
0.0191265
0.0189063
0.018686
0.0393204
0.0388738
0.0384271
0.019407
0.019189
0.0189711
0.0385346
0.0380965
0.0376584
0.0208569
0.020619
0.0203811
0.0402648
0.039809
0.0393533
0.0212539
0.0210125
0.0207712
0.0421117
0.0416325
0.0411533
0.0244489
0.0241793
0.0239098
0.0457024
0.0451915
0.0446806
0.0242173
0.0239508
0.0236842
0.0440621
0.0435713
0.0430805
0.048668
0.0481319
0.0475959
-0.0702954
-0.0695048
-0.0687142
-0.0530523
-0.0524597
-0.0518671
-0.0262538
-0.0259601
-0.0256664
-0.0278382
-0.0275315
-0.0272248
-0.0523282
-0.0517426
-0.0511569
-0.0543499
-0.0537468
-0.0531438
-0.0259887
-0.0256977
-0.0254067
-0.0258065
-0.0255177
-0.0252289
-0.0257658
-0.0254775
-0.0251893
-0.0258003
-0.0255118
-0.0252232
-0.0258173
-0.0255285
-0.0252398
-0.0257682
-0.02548
-0.0251918
-0.0257641
-0.0254761
-0.0251881
-0.0262367
-0.0259436
-0.0256506
-0.0261708
-0.0258779
-0.025585
-0.0245364
-0.0242652
-0.0239941
-0.171189
-0.169267
-0.167345
-0.218517
-0.216071
-0.213625
-0.260493
-0.25758
-0.254667
-0.387409
-0.38308
-0.378751
-0.539761
-0.533729
-0.527697
-0.6705
-0.663007
-0.655515
-0.774469
-0.765815
-0.757161
-0.847702
-0.83823
-0.828757
-0.887327
-0.877412
-0.867497
-0.891767
-0.881802
-0.871837
-0.860843
-0.851224
-0.841605
-0.795783
-0.786891
-0.777999
-0.699166
-0.691354
-0.683541
-0.574824
-0.5684
-0.561977
-0.427686
-0.422907
-0.418128
-0.263589
-0.260644
-0.257698
-0.0890403
-0.0880454
-0.0870504
0.0890404
0.0880454
0.0870505
0.263591
0.260646
0.2577
0.427689
0.42291
0.418131
0.574825
0.568402
0.561979
0.699167
0.691354
0.683542
0.795783
0.786891
0.777999
0.860843
0.851224
0.841605
0.891767
0.881802
0.871837
0.887326
0.877411
0.867496
0.847698
0.838226
0.828753
0.774463
0.765809
0.757155
0.670523
0.663031
0.655538
0.539928
0.533895
0.527861
0.387743
0.38341
0.379077
0.219649
0.217193
0.214736
-0.0516204
-0.051043
-0.0504657
-0.0520631
-0.0514802
-0.0508973
-0.0516151
-0.0510378
-0.0504605
-0.0563188
-0.0556938
-0.0550692
-0.0516948
-0.0511162
-0.0505375
-0.0515369
-0.0509603
-0.0503838
-0.0515825
-0.0510056
-0.0504286
-0.051632
-0.0510545
-0.0504771
-0.0515713
-0.0509945
-0.0504177
-0.0514981
-0.0509222
-0.0503464
-0.0521755
-0.0515927
-0.0510098
-0.0525694
-0.0519815
-0.0513936
-0.0507244
-0.0501652
-0.049606
-0.345814
-0.341951
-0.338088
-0.503172
-0.497549
-0.491925
-0.640105
-0.632952
-0.6258
-0.751231
-0.742837
-0.734443
-0.832456
-0.823154
-0.813852
-0.880681
-0.87084
-0.860999
-0.893989
-0.884
-0.87401
-0.871847
-0.862104
-0.852362
-0.81513
-0.806021
-0.796913
-0.726089
-0.717976
-0.709863
-0.608256
-0.601459
-0.594662
-0.466301
-0.461091
-0.45588
-0.305856
-0.302438
-0.29902
-0.133283
-0.131794
-0.130305
0.0445754
0.0440773
0.0435792
0.220669
0.218203
0.215737
0.388011
0.383676
0.37934
0.539966
0.533932
0.527898
0.670506
0.663014
0.655521
0.774458
0.765804
0.757151
0.8477
0.838228
0.828756
0.887327
0.877412
0.867497
0.891766
0.881801
0.871836
0.860839
0.85122
0.841601
0.795787
0.786895
0.778003
0.699198
0.691385
0.683572
0.574799
0.568376
0.561952
0.427319
0.422543
0.417767
0.262008
0.259078
0.256148
-0.051548
-0.0509713
-0.0503947
-0.0515021
-0.0509261
-0.0503501
-0.0517031
-0.0511252
-0.0505473
-0.0526352
-0.0520472
-0.0514591
-0.0523562
-0.0517753
-0.0511943
-0.699174
-0.691362
-0.683549
-0.795799
-0.786906
-0.778014
-0.860845
-0.851226
-0.841607
-0.891766
-0.881802
-0.871837
-0.887327
-0.877412
-0.867497
-0.847701
-0.838228
-0.828756
-0.774458
-0.765804
-0.75715
-0.670505
-0.663012
-0.65552
-0.539962
-0.533928
-0.527895
-0.388006
-0.383671
-0.379335
-0.220666
-0.2182
-0.215734
-0.0445758
-0.0440777
-0.0435796
0.133284
0.131795
0.130305
0.30586
0.302442
0.299025
0.466306
0.461095
0.455885
0.608259
0.601462
0.594665
0.72609
0.717977
0.709863
0.81513
0.806021
0.796913
0.871846
0.862104
0.852362
0.893989
0.884
0.87401
0.880678
0.870838
0.860997
0.832447
0.823145
0.813843
0.751226
0.742831
0.734437
0.640204
0.63305
0.625896
0.503621
0.497992
0.492364
0.346537
0.342663
0.33879
0.17629
0.174327
0.172364
-0.0546361
-0.0540305
-0.0534249
-0.0515777
-0.0510005
-0.0504234
-0.0518769
-0.0512961
-0.0507153
-0.574556
-0.568135
-0.561715
-0.426703
-0.421935
-0.417166
-0.105237
-0.104041
-0.102844
-0.267922
-0.264914
-0.261905
-0.35134
-0.34741
-0.34348
-0.310904
-0.307418
-0.303933
-0.430987
-0.426174
-0.421361
-0.392745
-0.388357
-0.383968
-0.505763
-0.500114
-0.494466
-0.469605
-0.464362
-0.459119
-0.575738
-0.569307
-0.562875
-0.541589
-0.53554
-0.529491
-0.640499
-0.633343
-0.626186
-0.608853
-0.60205
-0.595248
-0.699266
-0.691453
-0.683639
-0.670672
-0.663179
-0.655685
-0.75125
-0.742856
-0.734462
-0.726143
-0.718029
-0.709915
-0.795813
-0.786921
-0.778029
-0.774495
-0.765841
-0.757187
-0.832471
-0.823169
-0.813867
-0.815161
-0.806052
-0.796944
-0.860854
-0.851235
-0.841616
-0.84772
-0.838248
-0.828775
-0.880685
-0.870845
-0.861004
-0.871855
-0.862113
-0.852371
-0.891767
-0.881803
-0.871838
-0.88733
-0.877415
-0.867499
-0.893989
-0.884
-0.87401
-0.89399
-0.884
-0.87401
-0.887327
-0.877412
-0.867497
-0.891767
-0.881802
-0.871837
-0.871847
-0.862105
-0.852362
-0.880682
-0.870841
-0.861
-0.847701
-0.838229
-0.828757
-0.860844
-0.851225
-0.841606
-0.815131
-0.806022
-0.796914
-0.832451
-0.823149
-0.813847
-0.774459
-0.765805
-0.757151
-0.795784
-0.786892
-0.778
-0.726091
-0.717978
-0.709864
-0.751209
-0.742815
-0.734421
-0.670507
-0.663014
-0.655522
-0.699168
-0.691356
-0.683543
-0.608258
-0.601462
-0.594665
-0.640179
-0.633026
-0.625872
-0.539965
-0.533931
-0.527897
-0.574827
-0.568404
-0.561981
-0.466304
-0.461093
-0.455883
-0.503761
-0.498132
-0.492503
-0.388009
-0.383673
-0.379337
-0.427688
-0.422909
-0.41813
-0.305858
-0.30244
-0.299022
-0.347365
-0.343484
-0.339602
-0.220668
-0.218202
-0.215736
-0.263591
-0.260645
-0.2577
-0.133286
-0.131796
-0.130307
-0.177197
-0.175217
-0.173237
-0.0445788
-0.0440807
-0.0435826
-0.0890438
-0.0880488
-0.0870539
0.0445717
0.0440737
0.0435756
-4.79819e-06
-4.74698e-06
-4.69561e-06
0.13328
0.131791
0.130302
0.0890355
0.0880406
0.0870457
0.220665
0.2182
0.215734
0.177192
0.175212
0.173232
0.305857
0.30244
0.299022
0.263589
0.260643
0.257698
0.388009
0.383673
0.379338
0.347365
0.343484
0.339602
0.466304
0.461093
0.455883
0.427688
0.422909
0.41813
0.539963
0.53393
0.527896
0.50376
0.498131
0.492502
0.608256
0.60146
0.594663
0.574824
0.568401
0.561978
0.670504
0.663012
0.655519
0.640176
0.633022
0.625869
0.726088
0.717975
0.709861
0.699165
0.691352
0.68354
0.774457
0.765803
0.757149
0.751206
0.742812
0.734418
0.815128
0.80602
0.796911
0.795781
0.786889
0.777997
0.847699
0.838226
0.828754
0.832448
0.823146
0.813844
0.871844
0.862102
0.85236
0.860841
0.851222
0.841603
0.887326
0.877411
0.867496
0.880679
0.870839
0.860998
0.893989
0.883999
0.87401
0.891766
0.881801
0.871836
0.891767
0.881802
0.871837
0.893989
0.884
0.87401
0.88068
0.870839
0.860998
0.887327
0.877412
0.867497
0.860835
0.851216
0.841597
0.871842
0.8621
0.852357
0.832429
0.823127
0.813826
0.847684
0.838211
0.828739
0.795751
0.786859
0.777967
0.815094
0.805986
0.796878
0.751197
0.742803
0.734409
0.774417
0.765763
0.757109
0.699278
0.691464
0.68365
0.726112
0.717998
0.709884
0.64063
0.633471
0.626313
0.670776
0.66328
0.655785
0.575993
0.569558
0.563122
0.60913
0.602324
0.595518
0.506214
0.500558
0.494903
0.542
0.535944
0.529889
0.432329
0.427499
0.42267
0.470361
0.465107
0.459852
0.355648
0.351675
0.347701
0.395476
0.391058
0.386639
0.277632
0.274531
0.271429
0.318938
0.315374
0.31181
0.199467
0.19724
0.195014
0.242398
0.239694
0.236991
0.122098
0.120715
0.119333
0.0932532
0.0921927
0.0911323
0.166555
0.164687
0.16282
-0.103209
-0.102054
-0.100899
-0.10439
-0.103221
-0.102053
-0.574415
-0.567996
-0.561576
-0.102875
-0.101725
-0.100574
-0.103617
-0.102458
-0.101298
-0.129143
-0.127698
-0.126253
-0.10298
-0.101829
-0.100677
-0.1028
-0.101651
-0.100501
-0.103086
-0.101933
-0.10078
-0.102969
-0.101818
-0.100666
-0.128465
-0.127028
-0.125591
-0.104016
-0.102852
-0.101688
-0.129682
-0.128231
-0.126779
-0.103036
-0.101884
-0.100732
-0.105297
-0.104122
-0.102946
-0.103784
-0.102626
-0.101468
-0.699221
-0.691408
-0.683595
-0.34446
-0.340613
-0.336766
-0.112007
-0.110759
-0.109511
-0.16569
-0.163829
-0.161968
-0.105408
-0.104229
-0.10305
-0.130672
-0.129209
-0.127745
-0.258787
-0.255894
-0.253002
-0.301846
-0.298477
-0.295108
-0.133235
-0.131732
-0.130228
-0.640121
-0.632968
-0.625814
-0.670562
-0.663069
-0.655576
-0.795815
-0.786922
-0.77803
-0.860846
-0.851227
-0.841608
-0.891766
-0.881801
-0.871837
-0.887328
-0.877413
-0.867498
-0.847701
-0.838229
-0.828756
-0.774458
-0.765804
-0.75715
-0.670504
-0.663012
-0.65552
-0.539961
-0.533927
-0.527894
-0.388004
-0.383669
-0.379333
-0.220665
-0.218199
-0.215733
-0.0445763
-0.0440782
-0.0435801
0.133285
0.131795
0.130306
0.305864
0.302446
0.299028
0.466309
0.461099
0.455888
0.608261
0.601465
0.594668
0.726091
0.717978
0.709864
0.81513
0.806021
0.796913
0.871846
0.862104
0.852362
0.893989
0.884
0.87401
0.880676
0.870835
0.860994
0.832441
0.82314
0.813838
0.751241
0.742847
0.734453
0.64026
0.633105
0.625951
0.503575
0.497947
0.492319
0.34605
0.342182
0.338313
0.17089
0.168991
0.167092
-0.102907
-0.101756
-0.100605
-0.128539
-0.127101
-0.125663
-0.108441
-0.107233
-0.106026
-0.13296
-0.131473
-0.129986
-0.103068
-0.101916
-0.100763
-0.128649
-0.12721
-0.125772
0.0886425
0.0876621
0.0866817
0.08739
0.0864066
0.0854233
0.111034
0.109779
0.108525
0.0878887
0.0869035
0.0859183
0.109003
0.10778
0.106558
0.0855832
0.0846247
0.0836662
0.108614
0.107397
0.10618
0.0832605
0.0823281
0.0813957
0.10502
0.103843
0.102667
0.0826258
0.0816995
0.0807733
0.103301
0.102142
0.100984
0.0826879
0.0817605
0.0808331
0.103239
0.102081
0.100922
0.082679
0.0817519
0.0808248
0.103342
0.102182
0.101023
0.0824939
0.0815693
0.0806446
0.103181
0.102024
0.100867
0.0822846
0.0813625
0.0804405
0.102899
0.101746
0.100592
0.0821584
0.0812378
0.0803173
0.102685
0.101534
0.100383
0.0821304
0.0812101
0.0802899
0.102601
0.101451
0.100301
0.0821679
0.0812472
0.0803264
0.102622
0.101471
0.100321
0.082227
0.0813056
0.0803842
0.102692
0.101541
0.10039
0.0822719
0.0813501
0.0804282
0.102762
0.10161
0.100458
0.0822804
0.0813589
0.0804373
0.1028
0.101648
0.100496
0.0821944
0.081275
0.0803555
0.102787
0.101636
0.100485
0.0816162
0.0807052
0.0797942
0.102518
0.101373
0.100229
0.0791849
0.0783004
0.0774159
0.100963
0.0998431
0.0987236
0.0750201
0.0741756
0.073331
0.0954751
0.0944105
0.093346
0.0852188
0.0842688
0.0833188
0.100843
0.0997242
0.0986056
0.0818444
0.0809252
0.0800061
0.10554
0.104368
0.103196
-0.0651278
-0.0643981
-0.0636685
-0.181773
-0.179722
-0.177671
-0.103047
-0.101894
-0.100742
-0.1287
-0.127261
-0.125821
-0.50271
-0.497091
-0.491472
-0.539158
-0.533132
-0.527106
-0.118754
-0.117424
-0.116094
-0.222601
-0.220101
-0.217601
-0.130089
-0.128633
-0.127176
-0.128242
-0.126808
-0.125374
-0.102708
-0.10156
-0.100411
-0.211317
-0.208952
-0.206588
-0.102949
-0.101797
-0.100645
-0.104337
-0.103177
-0.102017
-0.128463
-0.127026
-0.125589
-0.128481
-0.127043
-0.125606
-0.128308
-0.126873
-0.125438
-0.12863
-0.127191
-0.125752
0.122507
0.121154
0.119802
-0.139301
-0.137747
-0.136194
-0.129139
-0.127695
-0.126252
-0.104042
-0.10288
-0.101717
-0.130766
-0.129305
-0.127845
-0.105303
-0.104126
-0.102949
-0.608065
-0.601269
-0.594474
-0.128719
-0.127279
-0.12584
-0.425726
-0.420968
-0.416209
-0.751265
-0.74287
-0.734475
-0.832461
-0.823159
-0.813857
-0.880679
-0.870834
-0.860989
-0.893987
-0.883994
-0.874
-0.871847
-0.862105
-0.852363
-0.815128
-0.806016
-0.796904
-0.726089
-0.717976
-0.709862
-0.608256
-0.601459
-0.594662
-0.4663
-0.461089
-0.455879
-0.305854
-0.302436
-0.299018
-0.133283
-0.131794
-0.130304
0.044575
0.0440769
0.0435788
0.22067
0.218205
0.215739
0.388015
0.383679
0.379344
0.539969
0.533935
0.527902
0.670508
0.663016
0.655523
0.774459
0.765805
0.757151
0.8477
0.838228
0.828756
0.887328
0.877412
0.867497
0.891765
0.8818
0.871835
0.860834
0.851215
0.841595
0.795786
0.78689
0.777994
0.699236
0.691423
0.68361
0.574834
0.56841
0.561986
0.427124
0.422349
0.417575
0.260551
0.257635
0.254719
0.574832
0.568408
0.561985
0.427696
0.422917
0.418138
0.0922249
0.0911989
0.0901729
0.263596
0.260651
0.257705
0.212792
0.210414
0.208036
0.387062
0.382735
0.378409
0.539918
0.533884
0.52785
0.670617
0.663123
0.65563
0.774479
0.765821
0.757164
0.847687
0.838215
0.828743
0.887322
0.877407
0.867492
0.891767
0.881802
0.871838
0.860843
0.851224
0.841605
0.795784
0.786892
0.777999
0.699169
0.691357
0.683544
-0.128692
-0.127252
-0.125812
0.303351
0.299958
0.296565
0.465958
0.46075
0.455542
0.608356
0.601558
0.59476
0.726157
0.718043
0.709928
0.81512
0.806008
0.796896
0.0890406
0.0880456
0.0870507
0.871836
0.862094
0.852352
0.893988
0.883999
0.874009
0.880682
0.870841
0.861
0.83245
0.823148
0.813846
0.751209
0.742815
0.734421
0.640182
0.633028
0.625875
0.503767
0.498138
0.492509
0.347373
0.343492
0.33961
0.177198
0.175218
0.173238
-1.07863e-06
-1.07172e-06
-1.06481e-06
-0.177194
-0.175214
-0.173234
-0.34736
-0.343478
-0.339597
-0.503756
-0.498127
-0.492498
-0.640176
-0.633022
-0.625869
-0.751207
-0.742813
-0.734419
-0.832446
-0.823141
-0.813835
-0.880683
-0.870842
-0.861001
-0.893987
-0.883993
-0.874
-0.385078
-0.380776
-0.376473
-0.726183
-0.718068
-0.709954
-0.131228
-0.129763
-0.128297
-0.131794
-0.130322
-0.128851
-0.263586
-0.260641
-0.257695
-0.0890404
-0.0880455
-0.0870505
-0.427683
-0.422904
-0.418125
-0.574823
-0.5684
-0.561976
-0.699166
-0.691353
-0.68354
-0.795783
-0.786887
-0.777991
-0.860844
-0.851225
-0.841606
-0.891766
-0.881797
-0.871828
-0.887323
-0.877404
-0.867485
-0.847707
-0.838235
-0.828763
-0.130332
-0.128874
-0.127415
-0.774518
-0.765864
-0.757209
-0.46448
-0.459287
-0.454094
-0.815155
-0.806047
-0.796938
-0.871845
-0.862099
-0.852353
0.107508
0.106312
0.105116
-0.395265
-0.390853
-0.386441
-0.470267
-0.465017
-0.459768
-0.434169
-0.429326
-0.424483
-0.541466
-0.535418
-0.52937
-0.506301
-0.500647
-0.494994
-0.608617
-0.601817
-0.595017
-0.57538
-0.568952
-0.562524
-0.670549
-0.663057
-0.655564
-0.640141
-0.632988
-0.625835
-0.726116
-0.718002
-0.709889
-0.699116
-0.691304
-0.683492
-0.774507
-0.765852
-0.757198
-0.751235
-0.74284
-0.734446
-0.815176
-0.806067
-0.796959
-0.79584
-0.786948
-0.778055
-0.847729
-0.838257
-0.828784
-0.832495
-0.823193
-0.813891
-0.871859
-0.862117
-0.852374
-0.860867
-0.851248
-0.841629
-0.887331
-0.877415
-0.8675
-0.88069
-0.870849
-0.861008
-0.89399
-0.884
-0.87401
-0.891768
-0.881804
-0.871839
-0.891767
-0.881802
-0.871837
-0.893989
-0.884
-0.87401
-0.880682
-0.870842
-0.861001
-0.887328
-0.877413
-0.867498
-0.860845
-0.851226
-0.841607
-0.871848
-0.862106
-0.852364
-0.832452
-0.82315
-0.813848
-0.847703
-0.838231
-0.828758
-0.795785
-0.786893
-0.778001
-0.815133
-0.806024
-0.796916
-0.75121
-0.742816
-0.734422
-0.774461
-0.765807
-0.757153
-0.69917
-0.691357
-0.683545
-0.726094
-0.71798
-0.709867
-0.640181
-0.633028
-0.625874
-0.67051
-0.663018
-0.655526
-0.574829
-0.568406
-0.561983
-0.608263
-0.601466
-0.594669
-0.503763
-0.498134
-0.492505
-0.539969
-0.533935
-0.527902
-0.42769
-0.42291
-0.418131
-0.466307
-0.461096
-0.455886
-0.347366
-0.343484
-0.339603
-0.388011
-0.383675
-0.379339
-0.263591
-0.260646
-0.2577
-0.305859
-0.302441
-0.299023
-0.177199
-0.175219
-0.173239
-0.22067
-0.218204
-0.215738
-0.0890463
-0.0880513
-0.0870563
-0.13329
-0.1318
-0.130311
-8.28603e-06
-8.19704e-06
-8.10791e-06
-0.0445849
-0.0440867
-0.0435885
0.0890318
0.088037
0.0870421
0.0445646
0.0440666
0.0435686
0.177189
0.175209
0.173229
0.133274
0.131785
0.130295
0.263587
0.260642
0.257696
0.220661
0.218195
0.215729
0.347365
0.343483
0.339602
0.305855
0.302438
0.29902
0.427689
0.42291
0.41813
0.388009
0.383673
0.379338
0.50376
0.498131
0.492502
0.466304
0.461094
0.455883
0.574824
0.568401
0.561977
0.539963
0.533929
0.527896
0.640174
0.633021
0.625868
0.608254
0.601458
0.594661
0.699163
0.691351
0.683538
0.670501
0.663009
0.655517
0.751204
0.74281
0.734416
0.726085
0.717972
0.709858
0.795779
0.786887
0.777995
0.774453
0.765799
0.757146
0.832446
0.823144
0.813842
0.815125
0.806017
0.796908
0.86084
0.851221
0.841601
0.847696
0.838224
0.828751
0.880678
0.870837
0.860997
0.871842
0.8621
0.852358
0.891765
0.8818
0.871836
0.887324
0.877409
0.867494
0.89399
0.884
0.874011
0.893988
0.883999
0.874009
0.887329
0.877414
0.867498
0.891769
0.881804
0.871839
0.871844
0.862102
0.85236
0.880684
0.870843
0.861002
0.847682
0.83821
0.828738
0.860836
0.851217
0.841598
0.815081
0.805973
0.796865
0.832414
0.823112
0.813811
0.774379
0.765726
0.757073
0.795701
0.786809
0.777918
0.726048
0.717934
0.709821
0.751095
0.742702
0.734309
0.670715
0.663221
0.655726
0.699153
0.69134
0.683528
0.609181
0.602375
0.595568
0.64062
0.633462
0.626303
0.542355
0.536296
0.530237
0.5764
0.56996
0.56352
0.471238
0.465973
0.460708
0.507445
0.501776
0.496107
0.397194
0.392756
0.388318
0.434923
0.430063
0.425204
0.321991
0.318391
0.314792
0.360418
0.35639
0.352361
0.247747
0.24498
0.242213
0.286033
0.282833
0.279632
0.177041
0.175059
0.173077
0.150365
0.148674
0.146983
0.215299
0.212895
0.21049
-0.179485
-0.177477
-0.17547
-0.178685
-0.176686
-0.174687
-0.185036
-0.182975
-0.180914
-0.180247
-0.17823
-0.176213
-0.178857
-0.176856
-0.174855
-0.2037
-0.201421
-0.199142
-0.815162
-0.806054
-0.796945
-0.263583
-0.260638
-0.257692
-0.1812
-0.179172
-0.177145
-0.206239
-0.203931
-0.201624
-0.182295
-0.180259
-0.178223
-0.210068
-0.207728
-0.205387
-0.774549
-0.765894
-0.757239
-0.795852
-0.786959
-0.778066
-0.608256
-0.601459
-0.594661
-0.464028
-0.45884
-0.453651
-0.179233
-0.177228
-0.175224
-0.228397
-0.225829
-0.22326
-0.192311
-0.190152
-0.187993
-0.179633
-0.177624
-0.175615
-0.300328
-0.296982
-0.293635
-0.314996
-0.31146
-0.307925
-0.357951
-0.353947
-0.349944
-0.277807
-0.27468
-0.271554
0.14903
0.147374
0.145718
-0.871844
-0.862098
-0.852352
-0.847708
-0.838236
-0.828763
-0.860846
-0.851226
-0.841607
-0.383571
-0.379279
-0.374987
-0.423764
-0.41902
-0.414276
-0.893987
-0.883993
-0.873999
-0.880683
-0.870842
-0.861001
-0.832446
-0.82314
-0.813835
-0.751206
-0.742812
-0.734418
-0.640174
-0.633017
-0.625861
-0.503754
-0.498125
-0.492496
-0.0890406
-0.0880457
-0.0870507
-0.347357
-0.343475
-0.339594
-0.305848
-0.30243
-0.299013
-0.42768
-0.422901
-0.418122
-0.387999
-0.383663
-0.379328
-0.177193
-0.175213
-0.173233
-0.133282
-0.131793
-0.130303
0.87183
0.862088
0.852346
0.213998
0.211607
0.209216
0.1772
0.17522
0.17324
0.12468
0.123299
0.121918
0.347379
0.343497
0.339616
0.503773
0.498143
0.492514
0.640185
0.633032
0.625878
0.751211
0.742817
0.734422
0.83245
0.823148
0.813846
0.880682
0.870841
0.861
0.893986
0.883993
0.873999
0.887321
0.877406
0.867491
0.880668
0.870828
0.860987
0.08904
0.0880451
0.0870501
0.133286
0.131797
0.130307
0.815108
0.805996
0.796884
0.72618
0.718065
0.709951
0.608493
0.601694
0.594895
0.466006
0.460796
0.455586
0.574836
0.568413
0.561989
0.608269
0.601472
0.594675
-0.179221
-0.177216
-0.175211
-0.204385
-0.202099
-0.199813
0.155447
0.153702
0.151958
0.173162
0.171221
0.169279
0.150703
0.149016
0.147329
0.17642
0.174444
0.172467
0.145588
0.143956
0.142324
0.168242
0.166357
0.164473
0.144417
0.142796
0.141176
0.164945
0.163095
0.161244
0.144641
0.143018
0.141395
0.165144
0.163291
0.161437
0.144659
0.143037
0.141414
0.165408
0.163552
0.161697
0.144285
0.142667
0.141049
0.1651
0.163249
0.161398
0.143841
0.142229
0.140616
0.16454
0.162695
0.160851
0.143559
0.14195
0.14034
0.1641
0.162261
0.160422
0.143479
0.14187
0.140262
0.16391
0.162072
0.160235
0.143541
0.141932
0.140323
0.163927
0.16209
0.160252
0.143661
0.14205
0.140439
0.164055
0.162216
0.160377
0.14376
0.142148
0.140537
0.164193
0.162353
0.160512
0.143796
0.142184
0.140572
0.164266
0.162425
0.160583
0.143775
0.142165
0.140554
0.164265
0.162424
0.160583
0.143606
0.142002
0.140399
0.164271
0.162432
0.160594
0.141921
0.140346
0.138772
0.163662
0.161837
0.160013
0.134052
0.132564
0.131076
0.158721
0.156958
0.155195
0.139139
0.137595
0.13605
0.147458
0.145823
0.144188
0.263599
0.260654
0.257708
0.305873
0.302455
0.299037
0.102376
0.101244
0.100111
-0.179591
-0.177583
-0.175574
-0.204891
-0.202599
-0.200308
-0.53922
-0.533193
-0.527166
-0.574668
-0.568246
-0.561823
-0.179349
-0.177343
-0.175337
-0.204645
-0.202356
-0.200067
-0.181825
-0.17979
-0.177755
-0.20727
-0.204951
-0.202631
-0.182103
-0.180063
-0.178024
-0.207557
-0.205233
-0.202909
0.303866
0.300468
0.297071
0.262273
0.25934
0.256406
-0.179654
-0.177645
-0.175636
-0.206088
-0.203784
-0.20148
-0.179281
-0.177276
-0.17527
-0.204231
-0.201946
-0.199662
-0.72626
-0.718144
-0.710029
-0.751372
-0.742976
-0.73458
0.220675
0.218209
0.215744
-0.815127
-0.806014
-0.796902
-0.795782
-0.786886
-0.77799
-0.203929
-0.201648
-0.199367
-0.204487
-0.2022
-0.199912
-0.341439
-0.337625
-0.333812
-0.832469
-0.823167
-0.813864
-0.466295
-0.461085
-0.455874
-0.502321
-0.496705
-0.491089
-0.213805
-0.211413
-0.20902
-0.220661
-0.218195
-0.215729
0.183099
0.181057
0.179016
-0.204793
-0.202502
-0.200212
-0.204887
-0.202596
-0.200304
-0.179554
-0.177546
-0.175538
-0.205151
-0.202856
-0.20056
-0.17953
-0.177521
-0.175513
-0.259755
-0.256857
-0.25396
-0.880677
-0.870832
-0.860987
-0.887322
-0.877403
-0.867484
-0.670721
-0.663227
-0.655732
-0.179005
-0.176998
-0.174991
-0.182739
-0.180701
-0.178662
-0.893988
-0.883994
-0.874
-0.891766
-0.881797
-0.871828
-0.640471
-0.633315
-0.626158
-0.887329
-0.877414
-0.867499
-0.860844
-0.851225
-0.841606
-0.774456
-0.765802
-0.757148
-0.699165
-0.691352
-0.68354
-0.574822
-0.568399
-0.561976
0.174036
0.172099
0.170162
-2.06163e-06
-2.04621e-06
-2.03077e-06
0.427701
0.422922
0.418143
-0.204526
-0.202238
-0.19995
0.699172
0.69136
0.683547
0.795785
0.786893
0.778
0.860843
0.851224
0.841605
0.891767
0.881803
0.871838
0.891761
0.881792
0.871824
0.795769
0.786874
0.777978
0.774475
0.765817
0.75716
0.847676
0.838204
0.828732
0.75126
0.742866
0.734471
0.860817
0.851198
0.841579
0.670689
0.663195
0.6557
0.54008
0.534044
0.528008
0.539979
0.533945
0.527911
0.387167
0.382838
0.37851
-0.184016
-0.181954
-0.179892
0.34667
0.342795
0.338921
-0.210949
-0.208603
-0.206258
0.427276
0.422498
0.41772
0.575134
0.568707
0.56228
0.699331
0.691517
0.683703
0.887328
0.877413
0.867498
0.8477
0.838228
0.828756
0.774461
0.765807
0.757154
0.670514
0.663022
0.655529
0.388026
0.38369
0.379354
-0.0445774
-0.0440793
-0.0435812
0.0445735
0.0440754
0.0435773
-0.608257
-0.601457
-0.594657
-0.726087
-0.717974
-0.70986
-0.207896
-0.205566
-0.203236
0.893987
0.883994
0.874
-0.204691
-0.202401
-0.200112
-0.871848
-0.862106
-0.852364
-0.891765
-0.8818
-0.871836
-0.699458
-0.691642
-0.683826
-0.203964
-0.201685
-0.199406
0.871846
0.862104
0.852362
-0.539959
-0.533925
-0.527892
-0.847701
-0.838228
-0.828756
-0.670498
-0.663003
-0.655508
0.815131
0.806023
0.796914
0.46632
0.461109
0.455899
0.726095
0.717982
0.709868
0.832418
0.823116
0.813815
0.503785
0.498153
0.492521
0.640469
0.633312
0.626156
-0.212505
-0.210118
-0.20773
-0.258082
-0.25519
-0.252298
-0.50476
-0.499124
-0.493488
-0.57428
-0.567863
-0.561446
-0.538826
-0.532806
-0.526787
-0.639662
-0.632515
-0.625367
-0.607039
-0.600255
-0.593472
-0.698997
-0.691186
-0.683376
-0.669952
-0.662466
-0.65498
-0.75124
-0.742846
-0.734452
-0.726002
-0.71789
-0.709778