/*--------------------------------*- C++ -*----------------------------------*\
| =========                 |                                                 |
| \\      /  F ield         | OpenFOAM: The Open Source CFD Toolbox           |
|  \\    /   O peration     | Version:  2206                                  |
|   \\  /    A nd           | Website:  www.openfoam.com                      |
|    \\/     M anipulation  |                                                 |
\*---------------------------------------------------------------------------*/
FoamFile
{
    version     2.0;
    format      ascii;
    arch        "LSB;label=32;scalar=64";
    class       volScalarField;
    location    "0";
    object      Cy;
}
// * * * * * * * * * * * * * * * * * * * * * * * * * * * * * * * * * * * * * //

dimensions      [0 1 0 0 0 0 0];

internalField   nonuniform List<scalar> 
47277
(
-0.893566
-0.883563
-0.873562
-0.883618
-0.873742
-0.863867
-0.866301
-0.856626
-0.846953
-0.875509
-0.865743
-0.855979
-0.840042
-0.830638
-0.821234
-0.853884
-0.844339
-0.834795
-0.805331
-0.796314
-0.787297
-0.823333
-0.814127
-0.804922
-0.762684
-0.754144
-0.745606
-0.784559
-0.775786
-0.767014
-0.712586
-0.704607
-0.69663
-0.738188
-0.729933
-0.721679
-0.65542
-0.648082
-0.640744
-0.684626
-0.67697
-0.669315
-0.59169
-0.585065
-0.57844
-0.624222
-0.617242
-0.610262
-0.522025
-0.51618
-0.510336
-0.557508
-0.551274
-0.54504
-0.447142
-0.442136
-0.43713
-0.485169
-0.479744
-0.474319
-0.367807
-0.363689
-0.359572
-0.40797
-0.403408
-0.398847
-0.284816
-0.281628
-0.278439
-0.326708
-0.323055
-0.319402
-0.198996
-0.196768
-0.19454
-0.2422
-0.239492
-0.236784
-0.111199
-0.109954
-0.108709
-0.155286
-0.15355
-0.151813
-0.0222951
-0.0220455
-0.0217959
-0.0668273
-0.06608
-0.0653328
0.0668323
0.0660841
0.0653361
0.022298
0.0220487
0.0217994
0.155296
0.153558
0.15182
0.111204
0.10996
0.108717
0.242217
0.239506
0.236795
0.199005
0.19678
0.194555
0.326731
0.323073
0.319415
0.28483
0.281645
0.278461
0.407997
0.403429
0.398861
0.367824
0.363711
0.359598
0.485208
0.479775
0.474343
0.447162
0.442162
0.437162
0.557597
0.551355
0.545113
0.522056
0.516219
0.510382
0.624445
0.617454
0.610464
0.591762
0.585146
0.578529
0.685087
0.677417
0.669747
0.655587
0.648256
0.640927
0.738919
0.730646
0.722374
0.712896
0.704924
0.696953
0.785408
0.776616
0.767823
0.76312
0.754587
0.746055
0.824093
0.814868
0.805643
0.80576
0.796751
0.787743
0.854586
0.84502
0.835455
0.840392
0.830996
0.821601
0.876586
0.866773
0.856961
0.866672
0.856982
0.847293
0.889873
0.879911
0.869949
0.884338
0.87445
0.864563
0.894317
0.884304
0.874292
0.893215
0.883227
0.87324
0.889873
0.879911
0.869949
0.893215
0.883227
0.87324
0.876586
0.866773
0.856961
0.884338
0.87445
0.864563
0.854586
0.84502
0.835454
0.866672
0.856982
0.847293
0.824093
0.814868
0.805643
0.840392
0.830996
0.821601
0.785409
0.776616
0.767824
0.80576
0.796751
0.787743
0.738919
0.730646
0.722374
0.76312
0.754587
0.746055
0.685086
0.677416
0.669746
0.712896
0.704925
0.696954
0.624446
0.617455
0.610464
0.655587
0.648257
0.640927
0.557598
0.551356
0.545114
0.591763
0.585147
0.578531
0.485209
0.479776
0.474345
0.522058
0.516221
0.510384
0.407998
0.40343
0.398862
0.447164
0.442164
0.437165
0.326732
0.323074
0.319416
0.367827
0.363714
0.359601
0.242219
0.239507
0.236795
0.284834
0.281649
0.278464
0.155298
0.153559
0.151821
0.19901
0.196785
0.194559
0.066835
0.0660867
0.0653385
0.111208
0.109964
0.108721
-0.0222939
-0.0220443
-0.0217948
0.0223
0.0220506
0.0218013
-0.111203
-0.109958
-0.108714
-0.0668321
-0.0660848
-0.0653376
-0.199009
-0.196782
-0.194554
-0.155304
-0.153567
-0.151831
-0.28484
-0.281651
-0.278463
-0.242236
-0.239528
-0.23682
-0.367837
-0.363719
-0.359602
-0.326761
-0.323108
-0.319454
-0.44717
-0.442163
-0.437157
-0.408028
-0.403465
-0.398904
-0.522035
-0.516191
-0.510346
-0.485207
-0.479782
-0.474357
-0.591676
-0.585051
-0.578427
-0.557505
-0.551271
-0.545038
-0.655388
-0.64805
-0.640713
-0.624176
-0.617197
-0.610218
-0.712539
-0.704561
-0.696584
-0.684547
-0.676893
-0.669239
-0.762559
-0.754022
-0.745484
-0.738018
-0.729765
-0.721513
-0.804954
-0.795942
-0.786931
-0.784058
-0.775291
-0.766524
-0.839328
-0.829932
-0.820537
-0.822236
-0.813043
-0.80385
-0.86544
-0.855753
-0.846066
-0.852301
-0.842772
-0.833244
-0.883201
-0.873318
-0.863435
-0.874229
-0.864455
-0.854683
-0.892517
-0.882539
-0.872562
-0.893998
-0.884009
-0.874021
-0.888051
-0.878124
-0.868197
-0.893824
-0.883826
-0.873828
-0.893798
-0.883802
-0.873805
-0.893863
-0.883866
-0.87387
-0.893879
-0.883883
-0.873886
-0.893889
-0.883893
-0.873896
-0.893889
-0.883892
-0.873895
-0.893886
-0.883889
-0.873892
-0.893887
-0.88389
-0.873893
-0.893893
-0.883896
-0.873899
-0.893875
-0.883878
-0.873881
-0.893834
-0.883838
-0.873841
-0.893853
-0.883856
-0.873859
-0.893521
-0.883525
-0.873528
-0.884832
-0.874939
-0.865047
-0.840681
-0.831286
-0.821892
-0.763305
-0.754776
-0.746247
-0.655605
-0.64828
-0.640954
-0.522004
-0.516171
-0.510339
-0.36779
-0.36368
-0.35957
-0.198993
-0.196769
-0.194546
-0.0222968
-0.0220476
-0.0217985
0.155286
0.153551
0.151816
0.326712
0.323061
0.319411
0.485181
0.47976
0.474338
0.62441
0.617433
0.610456
0.738879
0.730622
0.722366
0.824046
0.814838
0.80563
0.876536
0.866742
0.856947
0.894267
0.884274
0.874282
0.876536
0.866741
0.856947
0.824045
0.814837
0.805629
0.738877
0.730621
0.722364
0.624409
0.617432
0.610455
0.485181
0.479759
0.474338
0.326713
0.323062
0.319411
0.155287
0.153552
0.151817
-0.0222985
-0.0220494
-0.0218002
-0.199001
-0.196778
-0.194554
-0.367802
-0.363692
-0.359582
-0.522004
-0.516171
-0.510339
-0.655536
-0.648211
-0.640886
-0.763133
-0.754606
-0.746079
-0.840541
-0.831149
-0.821756
-0.884262
-0.874379
-0.864497
-0.892864
-0.882883
-0.872902
-0.889514
-0.87957
-0.869626
-0.894341
-0.884335
-0.874329
-0.894146
-0.884147
-0.874147
-0.893078
-0.883094
-0.873109
-0.89421
-0.88421
-0.87421
-0.893352
-0.883363
-0.873374
-0.8942
-0.8842
-0.8742
-0.893406
-0.883416
-0.873426
-0.894251
-0.884251
-0.874251
-0.893446
-0.883456
-0.873466
-0.894284
-0.884284
-0.874284
-0.89353
-0.88354
-0.873549
-0.894289
-0.884289
-0.874289
-0.893569
-0.883578
-0.873587
-0.894287
-0.884287
-0.874286
-0.893571
-0.88358
-0.873589
-0.894288
-0.884288
-0.874287
-0.89357
-0.883579
-0.873588
-0.894291
-0.884291
-0.874291
-0.893574
-0.883584
-0.873593
-0.894295
-0.884294
-0.874294
-0.893581
-0.88359
-0.873599
-0.894296
-0.884296
-0.874296
-0.893586
-0.883595
-0.873604
-0.894296
-0.884296
-0.874296
-0.893588
-0.883597
-0.873606
-0.894295
-0.884295
-0.874295
-0.893587
-0.883596
-0.873605
-0.894294
-0.884294
-0.874294
-0.893585
-0.883594
-0.873603
-0.894294
-0.884294
-0.874293
-0.893584
-0.883593
-0.873601
-0.894294
-0.884294
-0.874294
-0.893583
-0.883592
-0.873601
-0.894299
-0.884298
-0.874298
-0.893588
-0.883597
-0.873606
-0.894321
-0.88432
-0.87432
-0.893615
-0.883624
-0.873632
-0.894391
-0.884391
-0.87439
-0.893708
-0.883716
-0.873724
-0.894373
-0.884371
-0.87437
-0.89376
-0.883768
-0.873775
-0.894275
-0.884275
-0.874274
-0.893643
-0.883651
-0.873659
-0.894247
-0.884247
-0.874247
-0.893518
-0.883527
-0.873537
-0.894
-0.884001
-0.874002
-0.893243
-0.883253
-0.873263
-0.894016
-0.884011
-0.874005
-0.893356
-0.883358
-0.87336
-0.893015
-0.883025
-0.873035
-0.890746
-0.880783
-0.87082
-0.892641
-0.882658
-0.872674
-0.893847
-0.88385
-0.873854
-0.893702
-0.883705
-0.873709
-0.892705
-0.882722
-0.872738
-0.892521
-0.882537
-0.872553
-0.89387
-0.883874
-0.873877
-0.893886
-0.88389
-0.873893
-0.89389
-0.883893
-0.873896
-0.893887
-0.88389
-0.873893
-0.893885
-0.883889
-0.873892
-0.89389
-0.883893
-0.873896
-0.89389
-0.883893
-0.873896
-0.893849
-0.883852
-0.873855
-0.893854
-0.883858
-0.873861
-0.89399
-0.883985
-0.87398
-0.877628
-0.867818
-0.858009
-0.867151
-0.857458
-0.847764
-0.855419
-0.845861
-0.836303
-0.805995
-0.796988
-0.787982
-0.713002
-0.705035
-0.697068
-0.591729
-0.585117
-0.578505
-0.447115
-0.442119
-0.437123
-0.284807
-0.281625
-0.278442
-0.111198
-0.109955
-0.108713
0.0668266
0.0660798
0.0653331
0.242203
0.239496
0.23679
0.407974
0.403415
0.398857
0.557566
0.551336
0.545106
0.685049
0.677394
0.669739
0.785365
0.776589
0.767814
0.854538
0.844989
0.83544
0.889823
0.87988
0.869937
0.889823
0.87988
0.869937
0.854537
0.844988
0.83544
0.785364
0.776588
0.767812
0.685047
0.677392
0.669737
0.557566
0.551335
0.545105
0.407974
0.403415
0.398857
0.242204
0.239497
0.236791
0.0668265
0.0660797
0.065333
-0.111204
-0.109961
-0.108719
-0.284819
-0.281637
-0.278454
-0.447125
-0.442129
-0.437133
-0.591703
-0.585091
-0.578479
-0.712875
-0.70491
-0.696944
-0.805834
-0.79683
-0.787826
-0.866871
-0.857185
-0.847499
-0.892767
-0.882783
-0.872799
-0.892729
-0.882745
-0.872761
-0.892768
-0.882784
-0.872799
-0.892368
-0.882374
-0.872379
-0.892761
-0.882777
-0.872793
-0.892775
-0.88279
-0.872806
-0.892771
-0.882787
-0.872802
-0.892766
-0.882782
-0.872798
-0.892772
-0.882787
-0.872803
-0.892778
-0.882794
-0.872809
-0.892719
-0.882735
-0.872751
-0.892684
-0.8827
-0.872717
-0.892842
-0.882855
-0.872867
-0.824678
-0.815463
-0.806247
-0.739265
-0.731005
-0.722745
-0.624477
-0.617499
-0.610522
-0.485144
-0.479723
-0.474302
-0.326697
-0.323046
-0.319396
-0.155289
-0.153553
-0.151818
0.0222905
0.0220414
0.0217923
0.19899
0.196767
0.194543
0.3678
0.36369
0.359581
0.522023
0.51619
0.510357
0.655544
0.648219
0.640894
0.763071
0.754544
0.746017
0.840337
0.830947
0.821557
0.884279
0.874398
0.864517
0.893155
0.883175
0.873195
0.866613
0.85693
0.847246
0.805705
0.796702
0.787699
0.712847
0.704882
0.696916
0.591722
0.58511
0.578498
0.447133
0.442137
0.43714
0.284812
0.28163
0.278447
0.111194
0.109951
0.108709
-0.0668397
-0.0660929
-0.065346
-0.242219
-0.239512
-0.236806
-0.407967
-0.403408
-0.39885
-0.557527
-0.551297
-0.545067
-0.685066
-0.677411
-0.669756
-0.785555
-0.776778
-0.768
-0.854999
-0.845446
-0.835892
-0.892774
-0.882789
-0.872805
-0.892778
-0.882793
-0.872809
-0.89276
-0.882776
-0.872792
-0.892678
-0.882694
-0.872711
-0.892703
-0.882718
-0.872734
-0.557554
-0.551324
-0.545093
-0.407945
-0.403387
-0.398828
-0.242198
-0.239492
-0.236785
-0.066832
-0.0660852
-0.0653384
0.111193
0.10995
0.108708
0.284811
0.281628
0.278446
0.447134
0.442137
0.437141
0.591724
0.585112
0.5785
0.71285
0.704884
0.696919
0.805708
0.796705
0.787701
0.866614
0.856931
0.847247
0.893155
0.883175
0.873195
0.884279
0.874398
0.864517
0.840335
0.830945
0.821555
0.763068
0.754541
0.746015
0.655542
0.648217
0.640892
0.522022
0.516189
0.510355
0.367801
0.363691
0.359581
0.198992
0.196769
0.194545
0.0222887
0.0220396
0.0217905
-0.155303
-0.153568
-0.151832
-0.326721
-0.32307
-0.31942
-0.485154
-0.479733
-0.474312
-0.624381
-0.617404
-0.610427
-0.738967
-0.730711
-0.722454
-0.824377
-0.815166
-0.805955
-0.876776
-0.866978
-0.857179
-0.892496
-0.882513
-0.87253
-0.892771
-0.882787
-0.872803
-0.892745
-0.882761
-0.872777
-0.685262
-0.677605
-0.669949
-0.785887
-0.777106
-0.768324
-0.888323
-0.878378
-0.868433
-0.853213
-0.843683
-0.834153
-0.822358
-0.81317
-0.803982
-0.838465
-0.829099
-0.819734
-0.783565
-0.774808
-0.766051
-0.803428
-0.79445
-0.785472
-0.737527
-0.729284
-0.721041
-0.761091
-0.752584
-0.744077
-0.684298
-0.67665
-0.669002
-0.711654
-0.7037
-0.695746
-0.62409
-0.617115
-0.610141
-0.655011
-0.647691
-0.640371
-0.557446
-0.551216
-0.544987
-0.591541
-0.58493
-0.57832
-0.485116
-0.479695
-0.474274
-0.521949
-0.516117
-0.510284
-0.407915
-0.403357
-0.398799
-0.447068
-0.442073
-0.437077
-0.326659
-0.323009
-0.319359
-0.367732
-0.363623
-0.359513
-0.242165
-0.239459
-0.236753
-0.284755
-0.281573
-0.278391
-0.155265
-0.15353
-0.151795
-0.198955
-0.196732
-0.194509
-0.0668181
-0.0660715
-0.0653248
-0.111177
-0.109934
-0.108692
0.0222974
0.0220483
0.0217991
-0.0222874
-0.0220384
-0.0217893
0.111195
0.109953
0.10871
0.0668287
0.0660819
0.0653352
0.19899
0.196767
0.194543
0.155285
0.153549
0.151814
0.284809
0.281627
0.278444
0.2422
0.239494
0.236787
0.367798
0.363688
0.359579
0.326709
0.323058
0.319408
0.447132
0.442135
0.437139
0.407971
0.403413
0.398854
0.522021
0.516188
0.510354
0.485179
0.479757
0.474336
0.591722
0.58511
0.578498
0.557564
0.551333
0.545103
0.655542
0.648217
0.640892
0.624407
0.61743
0.610453
0.712848
0.704882
0.696917
0.685046
0.677391
0.669736
0.763069
0.754542
0.746016
0.738876
0.73062
0.722364
0.805706
0.796703
0.7877
0.785364
0.776588
0.767812
0.840336
0.830946
0.821556
0.824046
0.814838
0.80563
0.866614
0.85693
0.847246
0.854537
0.844988
0.83544
0.884279
0.874398
0.864517
0.876536
0.866741
0.856947
0.893155
0.883175
0.873195
0.889823
0.87988
0.869937
0.893156
0.883175
0.873195
0.894267
0.884274
0.874282
0.884279
0.874398
0.864517
0.889824
0.879881
0.869938
0.866614
0.856931
0.847247
0.876537
0.866742
0.856948
0.840336
0.830946
0.821556
0.854538
0.844989
0.83544
0.805706
0.796703
0.7877
0.824046
0.814838
0.80563
0.763069
0.754542
0.746016
0.785364
0.776588
0.767812
0.712849
0.704883
0.696918
0.738877
0.730621
0.722365
0.655544
0.648219
0.640894
0.685048
0.677393
0.669738
0.591725
0.585113
0.578501
0.624411
0.617434
0.610456
0.522024
0.516191
0.510358
0.557568
0.551338
0.545108
0.447136
0.44214
0.437143
0.485184
0.479763
0.474341
0.367804
0.363694
0.359584
0.407978
0.40342
0.398861
0.284817
0.281635
0.278452
0.326718
0.323067
0.319417
0.199
0.196777
0.194553
0.242212
0.239505
0.236799
0.111206
0.109963
0.10872
0.155299
0.153563
0.151828
0.0223042
0.022055
0.0218057
0.0668415
0.0660947
0.0653478
-0.0668232
-0.0660765
-0.0653298
-0.022283
-0.022034
-0.021785
-0.155294
-0.153559
-0.151824
-0.111193
-0.109951
-0.108708
-0.242231
-0.239524
-0.236817
-0.19901
-0.196786
-0.194562
-0.326765
-0.323113
-0.319462
-0.284859
-0.281676
-0.278493
-0.408037
-0.403477
-0.398918
-0.367878
-0.363767
-0.359656
-0.485201
-0.47978
-0.474358
-0.447206
-0.442209
-0.437213
-0.557434
-0.551205
-0.544976
-0.521998
-0.516165
-0.510333
-0.623958
-0.616985
-0.610013
-0.591432
-0.584823
-0.578214
-0.684085
-0.67644
-0.668796
-0.654759
-0.647442
-0.640126
-0.737227
-0.728988
-0.72075
-0.711342
-0.703393
-0.695444
-0.782861
-0.774113
-0.765365
-0.760635
-0.752135
-0.743635
-0.820567
-0.811398
-0.802229
-0.802157
-0.793194
-0.78423
-0.85016
-0.84066
-0.83116
-0.835591
-0.826254
-0.816917
-0.87182
-0.862077
-0.852334
-0.860966
-0.851344
-0.841722
-0.885991
-0.876092
-0.866192
-0.889604
-0.879662
-0.86972
-0.878807
-0.868987
-0.859166
-0.88828
-0.878346
-0.868412
-0.888128
-0.878195
-0.868263
-0.68538
-0.677723
-0.670065
-0.888324
-0.87839
-0.868455
-0.888224
-0.878291
-0.868357
-0.884877
-0.874981
-0.865085
-0.88831
-0.878376
-0.868441
-0.888334
-0.8784
-0.868465
-0.888296
-0.878362
-0.868427
-0.888311
-0.878376
-0.868442
-0.884985
-0.875088
-0.865191
-0.88817
-0.878237
-0.868304
-0.884791
-0.874896
-0.865001
-0.888311
-0.878376
-0.868442
-0.887993
-0.878062
-0.86813
-0.888237
-0.878303
-0.868369
-0.557495
-0.551265
-0.545036
-0.825245
-0.816023
-0.8068
-0.886898
-0.876978
-0.867058
-0.878687
-0.868868
-0.85905
-0.888011
-0.87808
-0.868148
-0.884639
-0.874746
-0.864853
-0.85594
-0.846376
-0.836811
-0.841768
-0.832361
-0.822954
-0.884138
-0.874253
-0.864368
-0.624461
-0.617484
-0.610506
-0.591655
-0.585044
-0.578433
-0.407913
-0.403355
-0.398797
-0.242195
-0.239489
-0.236782
-0.0668363
-0.0660895
-0.0653426
0.111189
0.109946
0.108704
0.28481
0.281628
0.278445
0.447134
0.442138
0.437142
0.591724
0.585112
0.5785
0.71285
0.704885
0.696919
0.805709
0.796705
0.787702
0.866615
0.856931
0.847247
0.893155
0.883175
0.873195
0.884279
0.874398
0.864517
0.840334
0.830944
0.821554
0.763066
0.754539
0.746013
0.655539
0.648214
0.640889
0.52202
0.516187
0.510354
0.3678
0.363691
0.359581
0.198992
0.196769
0.194545
0.0222835
0.0220345
0.0217855
-0.15532
-0.153584
-0.151849
-0.326735
-0.323084
-0.319433
-0.48513
-0.479709
-0.474288
-0.624324
-0.617347
-0.610371
-0.738998
-0.730742
-0.722485
-0.824582
-0.815369
-0.806155
-0.877816
-0.868004
-0.858192
-0.88832
-0.878385
-0.868451
-0.884974
-0.875077
-0.86518
-0.887604
-0.877676
-0.867748
-0.884276
-0.874387
-0.864497
-0.888298
-0.878364
-0.868429
-0.884956
-0.875059
-0.865162
-0.89001
-0.880057
-0.870103
-0.890236
-0.880283
-0.870331
-0.887556
-0.877636
-0.867716
-0.890109
-0.880157
-0.870205
-0.887797
-0.877871
-0.867946
-0.890406
-0.880452
-0.870497
-0.887863
-0.877936
-0.86801
-0.890654
-0.880697
-0.87074
-0.888334
-0.878403
-0.868472
-0.890705
-0.880747
-0.87079
-0.888544
-0.878611
-0.868677
-0.890694
-0.880736
-0.870779
-0.888548
-0.878615
-0.868681
-0.890696
-0.880739
-0.870781
-0.888536
-0.878603
-0.868669
-0.890717
-0.88076
-0.870802
-0.888557
-0.878624
-0.86869
-0.89074
-0.880782
-0.870824
-0.888593
-0.878659
-0.868725
-0.890752
-0.880794
-0.870836
-0.888619
-0.878685
-0.868751
-0.890755
-0.880797
-0.870839
-0.888629
-0.878695
-0.868761
-0.89075
-0.880792
-0.870834
-0.888626
-0.878692
-0.868758
-0.890744
-0.880786
-0.870828
-0.888618
-0.878684
-0.86875
-0.890739
-0.880781
-0.870823
-0.888609
-0.878675
-0.868741
-0.890738
-0.88078
-0.870822
-0.888604
-0.87867
-0.868736
-0.890745
-0.880787
-0.870829
-0.888605
-0.878671
-0.868737
-0.890798
-0.880839
-0.870879
-0.888638
-0.878703
-0.868768
-0.891032
-0.88107
-0.871108
-0.888829
-0.87889
-0.868951
-0.891521
-0.881554
-0.871587
-0.889477
-0.879532
-0.869586
-0.890236
-0.880279
-0.870323
-0.888727
-0.878787
-0.868847
-0.89086
-0.880899
-0.870938
-0.888211
-0.878276
-0.86834
-0.891217
-0.881247
-0.871276
-0.875725
-0.865939
-0.856153
-0.888301
-0.878367
-0.868433
-0.884948
-0.875052
-0.865155
-0.73958
-0.731317
-0.723054
-0.713434
-0.705463
-0.697493
-0.886362
-0.876453
-0.866544
-0.865924
-0.85625
-0.846575
-0.884727
-0.874832
-0.864938
-0.885021
-0.875124
-0.865226
-0.88835
-0.878415
-0.868481
-0.86873
-0.859021
-0.849313
-0.888315
-0.878381
-0.868446
-0.887986
-0.878054
-0.868123
-0.884986
-0.875088
-0.865191
-0.884983
-0.875086
-0.865189
-0.885013
-0.875115
-0.865218
-0.884959
-0.875062
-0.865166
-0.885797
-0.875891
-0.865986
-0.883186
-0.873309
-0.863431
-0.884882
-0.874986
-0.86509
-0.888176
-0.878242
-0.868309
-0.884621
-0.874727
-0.864833
-0.887986
-0.878055
-0.868123
-0.655708
-0.648381
-0.641055
-0.884945
-0.875048
-0.865152
-0.786416
-0.77763
-0.768843
-0.485093
-0.479672
-0.474252
-0.326685
-0.323035
-0.319384
-0.155291
-0.153555
-0.151819
0.0222857
0.0220366
0.0217875
0.198988
0.196764
0.194541
0.3678
0.363688
0.359577
0.522023
0.51619
0.510357
0.655545
0.64822
0.640894
0.763072
0.754545
0.746018
0.840338
0.830948
0.821558
0.884279
0.874398
0.864517
0.893155
0.883175
0.873195
0.866613
0.856929
0.847246
0.805703
0.7967
0.787697
0.712844
0.704879
0.696914
0.59172
0.585108
0.578496
0.447132
0.442136
0.437139
0.284812
0.28163
0.278447
0.111191
0.109949
0.108706
-0.0668496
-0.0661027
-0.0653557
-0.242238
-0.239531
-0.236825
-0.407966
-0.403406
-0.398845
-0.557479
-0.55125
-0.54502
-0.685036
-0.677382
-0.669728
-0.785661
-0.776883
-0.768105
-0.855444
-0.845887
-0.836329
0.685042
0.677387
0.669732
0.78536
0.776584
0.767808
-0.889592
-0.879641
-0.86969
0.854535
0.844987
0.835438
-0.868356
-0.858653
-0.848949
-0.806145
-0.797138
-0.78813
-0.712877
-0.704912
-0.696947
-0.591598
-0.584987
-0.578377
-0.447096
-0.442098
-0.4371
-0.284852
-0.281669
-0.278486
-0.11123
-0.109987
-0.108745
0.0668187
0.0660721
0.0653254
0.242203
0.239497
0.236791
0.407973
0.403414
0.398856
0.557562
0.551332
0.545102
-0.884949
-0.875052
-0.865156
-0.84119
-0.831792
-0.822394
-0.76327
-0.754742
-0.746215
-0.655449
-0.648125
-0.640801
-0.521932
-0.5161
-0.510268
-0.367819
-0.363707
-0.359595
0.889823
0.87988
0.869937
-0.199037
-0.196813
-0.194589
-0.0223136
-0.0220642
-0.0218149
0.155284
0.153549
0.151814
0.326712
0.323062
0.319411
0.485179
0.479757
0.474336
0.624405
0.617428
0.61045
0.738872
0.730616
0.72236
0.824042
0.814834
0.805626
0.876535
0.866741
0.856946
0.894267
0.884274
0.874282
0.876536
0.866742
0.856947
0.824048
0.81484
0.805632
0.73888
0.730624
0.722367
0.624411
0.617434
0.610456
0.485182
0.479761
0.474339
0.326715
0.323063
0.31941
0.15528
0.153545
0.151809
-0.0223012
-0.022052
-0.0218029
-0.807091
-0.798072
-0.789054
-0.521894
-0.516062
-0.51023
-0.884531
-0.87464
-0.864749
-0.884452
-0.874559
-0.864667
0.854539
0.84499
0.835441
0.889823
0.87988
0.869937
0.785367
0.776591
0.767815
0.685049
0.677394
0.66974
0.557567
0.551337
0.545107
0.40797
0.40341
0.398849
0.2422
0.239493
0.236787
0.0668133
0.0660665
0.0653198
-0.111209
-0.109966
-0.108722
-0.284792
-0.28161
-0.278428
-0.884691
-0.874796
-0.864902
-0.447031
-0.442036
-0.437041
-0.764148
-0.755611
-0.747074
-0.367746
-0.363637
-0.359528
-0.198987
-0.196763
-0.194539
-0.887939
-0.878008
-0.868077
-0.80219
-0.793223
-0.784257
-0.760684
-0.75218
-0.743677
-0.781919
-0.773177
-0.764436
-0.711747
-0.703792
-0.695837
-0.737213
-0.728973
-0.720732
-0.65523
-0.647907
-0.640585
-0.68461
-0.676959
-0.669308
-0.59168
-0.585068
-0.578456
-0.624448
-0.61747
-0.610492
-0.521987
-0.516154
-0.510321
-0.557623
-0.551391
-0.54516
-0.447049
-0.442053
-0.437058
-0.485134
-0.479713
-0.474292
-0.367698
-0.363589
-0.35948
-0.407861
-0.403304
-0.398746
-0.284727
-0.281545
-0.278364
-0.326598
-0.322948
-0.319299
-0.198939
-0.196716
-0.194493
-0.242121
-0.239415
-0.23671
-0.111169
-0.109927
-0.108685
-0.155241
-0.153506
-0.151772
-0.0222859
-0.0220369
-0.0217878
-0.0668091
-0.0660625
-0.065316
0.0668268
0.06608
0.0653333
0.022297
0.0220479
0.0217987
0.155281
0.153546
0.151811
0.11119
0.109947
0.108705
0.242197
0.23949
0.236784
0.198984
0.19676
0.194537
0.326707
0.323056
0.319406
0.284804
0.281621
0.278439
0.40797
0.403411
0.398852
0.367794
0.363684
0.359575
0.485177
0.479756
0.474334
0.447128
0.442132
0.437136
0.557562
0.551331
0.545101
0.522017
0.516184
0.510351
0.624405
0.617428
0.610451
0.591718
0.585106
0.578494
0.685044
0.677389
0.669734
0.655538
0.648213
0.640888
0.738875
0.730619
0.722363
0.712844
0.704879
0.696914
0.785363
0.776587
0.767812
0.763067
0.75454
0.746014
0.824045
0.814837
0.805629
0.805706
0.796703
0.787699
0.854537
0.844988
0.83544
0.840336
0.830946
0.821556
0.876535
0.866741
0.856946
0.866613
0.85693
0.847246
0.889823
0.87988
0.869937
0.884278
0.874397
0.864516
0.894267
0.884274
0.874282
0.893155
0.883175
0.873195
0.889824
0.879881
0.869938
0.893156
0.883176
0.873196
0.876537
0.866743
0.856948
0.88428
0.874399
0.864518
0.854538
0.844989
0.835441
0.866615
0.856932
0.847248
0.824046
0.814838
0.80563
0.840337
0.830947
0.821557
0.785364
0.776588
0.767812
0.805706
0.796703
0.7877
0.738877
0.730621
0.722365
0.763069
0.754542
0.746016
0.685048
0.677394
0.669739
0.712849
0.704884
0.696918
0.624412
0.617435
0.610458
0.655546
0.648221
0.640896
0.55757
0.55134
0.54511
0.591728
0.585116
0.578504
0.485187
0.479765
0.474344
0.522029
0.516196
0.510363
0.407981
0.403423
0.398864
0.447142
0.442145
0.437149
0.326722
0.323071
0.31942
0.367811
0.363701
0.359591
0.242216
0.23951
0.236803
0.284826
0.281643
0.27846
0.155305
0.15357
0.151835
0.199012
0.196788
0.194564
0.0668512
0.0661042
0.0653572
0.111222
0.109979
0.108736
-0.0222705
-0.0220217
-0.0217728
0.0223263
0.0220768
0.0218273
-0.11118
-0.109938
-0.108695
-0.0667974
-0.066051
-0.0653046
-0.199001
-0.196777
-0.194553
-0.155272
-0.153537
-0.151802
-0.284864
-0.281681
-0.278498
-0.242226
-0.23952
-0.236813
-0.367908
-0.363797
-0.359686
-0.326799
-0.323148
-0.319496
-0.447271
-0.442273
-0.437275
-0.408131
-0.403571
-0.399011
-0.522087
-0.516254
-0.51042
-0.485355
-0.479932
-0.474509
-0.5915
-0.584891
-0.578282
-0.557591
-0.551361
-0.545131
-0.654711
-0.647395
-0.640079
-0.623979
-0.617006
-0.610034
-0.711071
-0.703125
-0.695179
-0.683767
-0.676126
-0.668485
-0.760093
-0.751599
-0.743105
-0.736414
-0.728185
-0.719955
-0.80131
-0.792356
-0.783402
-0.781473
-0.77274
-0.764008
-0.834425
-0.825102
-0.815779
-0.818554
-0.809408
-0.800262
-0.859457
-0.849854
-0.84025
-0.847486
-0.838017
-0.828549
-0.876776
-0.866976
-0.857176
-0.881912
-0.872054
-0.862196
-0.868281
-0.858576
-0.848871
-0.876061
-0.866264
-0.856466
-0.876247
-0.866448
-0.856649
-0.874795
-0.865008
-0.85522
-0.875897
-0.866101
-0.856306
-0.876199
-0.8664
-0.856601
-0.870762
-0.861024
-0.851286
-0.367731
-0.363622
-0.359513
0.854539
0.844991
0.835442
-0.875681
-0.865888
-0.856095
-0.870134
-0.860403
-0.850672
-0.875463
-0.865671
-0.855879
-0.869179
-0.859455
-0.849731
-0.446979
-0.441984
-0.43699
-0.407845
-0.403288
-0.398731
-0.65553
-0.648206
-0.640881
-0.764422
-0.755883
-0.747343
-0.876116
-0.866318
-0.85652
-0.864354
-0.854695
-0.845037
-0.873325
-0.863561
-0.853798
-0.876028
-0.866231
-0.856434
-0.84231
-0.832894
-0.823478
-0.836926
-0.827579
-0.818232
-0.81958
-0.810422
-0.801265
-0.850104
-0.840609
-0.831113
-0.882017
-0.872151
-0.862284
-0.198992
-0.196768
-0.194543
-0.28479
-0.281608
-0.278425
-0.242198
-0.239491
-0.236785
-0.807805
-0.798777
-0.789749
-0.787407
-0.778608
-0.769809
-0.0223072
-0.022058
-0.0218088
0.155276
0.153541
0.151806
0.326716
0.323063
0.319411
0.485184
0.479762
0.474341
0.62441
0.61743
0.61045
0.738881
0.730625
0.722368
0.889823
0.87988
0.869937
0.824049
0.814841
0.805633
0.84034
0.83095
0.82156
0.785368
0.776593
0.767817
0.805711
0.796708
0.787705
0.876537
0.866742
0.856948
0.884279
0.874398
0.864517
-0.199061
-0.196837
-0.194613
-0.868051
-0.858351
-0.84865
0.876535
0.866741
0.856946
-0.885476
-0.875572
-0.865667
0.82404
0.814832
0.805624
0.738869
0.730612
0.722356
0.624401
0.617424
0.610447
0.485177
0.479755
0.474334
0.326712
0.323061
0.319411
0.155284
0.153549
0.151814
-0.022323
-0.0220735
-0.021824
-0.111244
-0.110001
-0.108758
-0.155358
-0.153622
-0.151886
0.889823
0.87988
0.869937
0.884278
0.874397
0.864516
-0.367846
-0.363734
-0.359621
-0.5219
-0.516068
-0.510236
-0.655322
-0.647999
-0.640676
-0.763242
-0.754715
-0.746188
0.685038
0.677384
0.669729
0.655532
0.648207
0.640882
-0.87612
-0.866322
-0.856524
-0.870592
-0.860856
-0.85112
-0.88069
-0.870843
-0.860995
-0.877485
-0.867673
-0.857862
-0.881725
-0.871867
-0.862009
-0.876864
-0.867059
-0.857254
-0.882624
-0.872757
-0.86289
-0.878558
-0.868736
-0.858914
-0.882785
-0.872916
-0.863048
-0.879184
-0.869356
-0.859529
-0.882737
-0.87287
-0.863002
-0.879135
-0.869308
-0.859481
-0.882739
-0.872871
-0.863003
-0.879086
-0.86926
-0.859433
-0.882807
-0.872939
-0.86307
-0.87915
-0.869322
-0.859494
-0.882885
-0.873015
-0.863145
-0.87926
-0.869431
-0.859602
-0.882932
-0.873062
-0.863192
-0.879345
-0.869515
-0.859685
-0.882945
-0.873075
-0.863204
-0.879381
-0.869551
-0.85972
-0.882933
-0.873063
-0.863193
-0.879377
-0.869547
-0.859716
-0.882912
-0.873042
-0.863172
-0.879352
-0.869522
-0.859692
-0.882895
-0.873025
-0.863156
-0.879325
-0.869495
-0.859666
-0.88289
-0.87302
-0.86315
-0.879311
-0.869482
-0.859652
-0.882894
-0.873024
-0.863154
-0.879312
-0.869482
-0.859653
-0.882915
-0.873043
-0.863172
-0.87931
-0.86948
-0.859649
-0.883178
-0.873302
-0.863425
-0.879424
-0.869591
-0.859758
-0.884457
-0.874566
-0.864675
-0.880362
-0.870516
-0.86067
-0.883725
-0.873839
-0.863954
-0.882261
-0.87239
-0.86252
0.854534
0.844986
0.835437
0.840331
0.830941
0.821551
-0.888141
-0.878207
-0.868273
-0.876038
-0.86624
-0.856443
-0.870468
-0.860733
-0.850998
-0.713388
-0.705417
-0.697447
-0.685156
-0.677501
-0.669846
-0.87609
-0.866293
-0.856495
-0.870528
-0.860793
-0.851057
-0.875542
-0.865751
-0.855959
-0.869876
-0.860148
-0.850419
-0.875505
-0.865714
-0.855923
-0.869809
-0.860082
-0.850355
-0.841004
-0.831607
-0.82221
-0.854952
-0.845399
-0.835847
-0.876049
-0.866252
-0.856455
-0.870185
-0.860453
-0.850721
-0.876103
-0.866305
-0.856507
-0.870629
-0.860893
-0.851156
-0.521787
-0.515956
-0.510126
-0.484933
-0.479515
-0.474096
0.866612
0.856928
0.847244
0.367802
0.363691
0.359579
0.407972
0.403412
0.398851
-0.870712
-0.860975
-0.851238
-0.870567
-0.860831
-0.851095
-0.8265
-0.817259
-0.808018
-0.326667
-0.323017
-0.319367
0.763074
0.754548
0.746021
-0.739807
-0.731542
-0.723277
-0.868103
-0.858399
-0.848695
0.866616
0.856932
0.847248
-0.875404
-0.865614
-0.855824
-0.870492
-0.860757
-0.851022
-0.870468
-0.860734
-0.850999
-0.876044
-0.866247
-0.856449
-0.870404
-0.86067
-0.850936
-0.876054
-0.866257
-0.85646
-0.855855
-0.846286
-0.836717
-0.155302
-0.153566
-0.15183
-0.111215
-0.109972
-0.108729
-0.591474
-0.584865
-0.578256
-0.876368
-0.86657
-0.856771
-0.875305
-0.865512
-0.855719
0.022274
0.022025
0.021776
0.0668076
0.0660609
0.0653142
-0.624103
-0.617129
-0.610155
0.111179
0.109937
0.108695
0.242199
0.239493
0.236786
0.447138
0.442141
0.437145
0.557568
0.551338
0.545108
0.68505
0.677395
0.66974
-0.877209
-0.867401
-0.857593
0.894267
0.884274
0.874282
0.785357
0.776581
0.767806
-0.870557
-0.860822
-0.851086
0.557559
0.551329
0.545098
0.407971
0.403412
0.398853
0.242203
0.239497
0.23679
0.0668148
0.0660682
0.0653216
-0.0668678
-0.0661205
-0.0653732
-0.408
-0.403439
-0.398878
-0.447103
-0.442105
-0.437107
-0.284886
-0.281703
-0.27852
-0.485105
-0.479685
-0.474264
-0.242296
-0.239589
-0.236882
-0.591517
-0.584907
-0.578297
-0.712754
-0.70479
-0.696826
0.712837
0.704872
0.696906
-0.806094
-0.797088
-0.788082
-0.875145
-0.865359
-0.855572
-0.824345
-0.815134
-0.805923
-0.868945
-0.859219
-0.849494
-0.785582
-0.776806
-0.768029
-0.684785
-0.677134
-0.669482
-0.557366
-0.551137
-0.544909
0.111187
0.109944
0.108702
0.284811
0.281629
0.278446
0.447128
0.442132
0.437135
0.591713
0.585101
0.578489
0.805698
0.796695
0.787692
0.893155
0.883175
0.873195
0.893156
0.883175
0.873195
0.655541
0.648213
0.640885
0.522026
0.516193
0.51036
-0.869745
-0.86002
-0.850294
0.0222654
0.0220167
0.0217679
-0.870516
-0.860781
-0.851045
0.198984
0.19676
0.194537
-0.0668489
-0.0661019
-0.0653549
-0.557207
-0.550981
-0.544754
-0.870691
-0.86095
-0.851209
0.198991
0.196768
0.194544
0.712852
0.704887
0.696921
0.28481
0.281628
0.278445
0.591728
0.585113
0.578498
0.367798
0.363688
0.359578
0.763059
0.754533
0.746006
0.522015
0.516182
0.510349
-0.326796
-0.323144
-0.319493
-0.738846
-0.730592
-0.722337
-0.624115
-0.61714
-0.610166
-0.868612
-0.858901
-0.84919
-0.856199
-0.846625
-0.837051
-0.738264
-0.730012
-0.721759
-0.685531
-0.67787
-0.670209
-0.71372
-0.705743
-0.697766
-0.624937
-0.617954
-0.61097
-0.65664
-0.649303
-0.641966
-0.557772
-0.551539
-0.545306
-0.592319
-0.5857
-0.579081