/*--------------------------------*- C++ -*----------------------------------*\
| =========                 |                                                 |
| \\      /  F ield         | OpenFOAM: The Open Source CFD Toolbox           |
|  \\    /   O peration     | Version:  2206                                  |
|   \\  /    A nd           | Website:  www.openfoam.com                      |
|    \\/     M anipulation  |                                                 |
\*---------------------------------------------------------------------------*/
FoamFile
{
    version     2.0;
    format      ascii;
    arch        "LSB;label=32;scalar=64";
    class       volScalarField;
    location    "0";
    object      Cz;
}
// * * * * * * * * * * * * * * * * * * * * * * * * * * * * * * * * * * * * * //

dimensions      [0 1 0 0 0 0 0];

internalField   nonuniform List<scalar> 
47277
(
-3.48663
-3.48274
-3.47885
-3.49112
-3.48724
-3.48337
-3.48993
-3.48606
-3.48218
-3.4656
-3.46367
-3.46175
-3.49128
-3.48739
-3.4835
-3.46578
-3.46383
-3.46189
-3.49202
-3.48813
-3.48424
-3.46786
-3.46592
-3.46397
-3.49183
-3.48794
-3.48405
-3.46841
-3.46647
-3.46452
-3.49125
-3.48736
-3.48347
-3.46764
-3.46569
-3.46375
-3.49082
-3.48693
-3.48304
-3.46663
-3.46468
-3.46274
-3.49059
-3.4867
-3.48281
-3.46596
-3.46402
-3.46208
-3.49048
-3.48659
-3.4827
-3.46563
-3.46369
-3.46174
-3.49044
-3.48655
-3.48266
-3.46549
-3.46354
-3.4616
-3.49042
-3.48653
-3.48264
-3.46542
-3.46348
-3.46153
-3.4904
-3.48651
-3.48263
-3.46538
-3.46344
-3.4615
-3.4904
-3.48651
-3.48262
-3.46536
-3.46342
-3.46147
-3.49039
-3.4865
-3.48261
-3.46535
-3.4634
-3.46146
-3.49039
-3.4865
-3.48261
-3.46534
-3.46339
-3.46145
-3.49038
-3.48649
-3.48261
-3.46533
-3.46339
-3.46144
-3.49038
-3.48649
-3.48261
-3.46533
-3.46338
-3.46144
-3.49038
-3.48649
-3.4826
-3.46533
-3.46338
-3.46144
-3.49038
-3.48649
-3.4826
-3.46533
-3.46338
-3.46144
-3.49038
-3.48649
-3.4826
-3.46533
-3.46338
-3.46144
-3.49038
-3.48649
-3.4826
-3.46533
-3.46338
-3.46144
-3.49038
-3.48649
-3.4826
-3.46533
-3.46338
-3.46144
-3.49038
-3.48649
-3.4826
-3.46533
-3.46338
-3.46144
-3.49038
-3.48649
-3.4826
-3.46533
-3.46339
-3.46144
-3.49038
-3.48649
-3.4826
-3.46533
-3.46339
-3.46144
-3.49038
-3.48649
-3.48261
-3.46533
-3.46339
-3.46144
-3.49038
-3.48649
-3.48261
-3.46533
-3.46339
-3.46144
-3.49038
-3.48649
-3.48261
-3.46533
-3.46339
-3.46144
-3.49038
-3.48649
-3.4826
-3.46533
-3.46338
-3.46144
-3.49038
-3.48649
-3.4826
-3.46533
-3.46338
-3.46144
-3.49038
-3.48649
-3.4826
-3.46533
-3.46338
-3.46144
-3.49038
-3.48649
-3.4826
-3.46533
-3.46338
-3.46144
-3.49038
-3.48649
-3.48261
-3.46533
-3.46339
-3.46144
-3.49038
-3.48649
-3.48261
-3.46533
-3.46339
-3.46144
-3.49038
-3.48649
-3.48261
-3.46533
-3.46339
-3.46144
-3.49038
-3.48649
-3.4826
-3.46533
-3.46338
-3.46144
-3.49038
-3.48649
-3.4826
-3.46533
-3.46338
-3.46144
-3.49038
-3.48649
-3.4826
-3.46532
-3.46338
-3.46143
-3.49038
-3.48649
-3.4826
-3.46532
-3.46338
-3.46143
-3.49038
-3.48649
-3.4826
-3.46532
-3.46337
-3.46143
-3.49038
-3.48649
-3.4826
-3.46532
-3.46337
-3.46143
-3.49038
-3.48649
-3.4826
-3.46531
-3.46337
-3.46143
-3.49038
-3.48649
-3.4826
-3.46531
-3.46337
-3.46143
-3.49038
-3.48649
-3.4826
-3.46531
-3.46337
-3.46143
-3.49038
-3.48649
-3.4826
-3.46531
-3.46337
-3.46143
-3.49038
-3.48649
-3.4826
-3.46532
-3.46337
-3.46143
-3.49038
-3.48649
-3.4826
-3.46532
-3.46337
-3.46143
-3.49038
-3.48649
-3.4826
-3.46532
-3.46337
-3.46143
-3.49037
-3.48648
-3.4826
-3.46531
-3.46337
-3.46143
-3.49036
-3.48647
-3.48259
-3.4653
-3.46336
-3.46141
-3.49035
-3.48646
-3.48257
-3.46527
-3.46333
-3.46138
-3.49032
-3.48643
-3.48254
-3.46523
-3.46328
-3.46134
-3.4903
-3.48641
-3.48252
-3.46518
-3.46324
-3.4613
-3.49031
-3.48642
-3.48253
-3.46518
-3.46323
-3.46129
-3.49039
-3.4865
-3.48261
-3.46527
-3.46332
-3.46138
-3.49056
-3.48667
-3.48278
-3.46551
-3.46357
-3.46162
-3.49079
-3.4869
-3.48301
-3.46591
-3.46396
-3.46202
-3.49107
-3.48718
-3.48328
-3.46642
-3.46447
-3.46252
-3.49142
-3.48753
-3.48364
-3.46705
-3.4651
-3.46315
-3.49183
-3.48794
-3.48404
-3.46781
-3.46586
-3.46391
-3.49137
-3.48748
-3.48359
-3.46777
-3.46582
-3.46386
-3.4897
-3.48581
-3.48192
-3.46091
-3.45897
-3.45703
-3.46564
-3.46369
-3.46174
-3.38772
-3.38773
-3.38774
-3.20592
-3.20592
-3.20592
-3.02707
-3.02707
-3.02707
-2.84908
-2.84908
-2.84908
-2.67099
-2.67099
-2.67099
-2.49276
-2.49276
-2.49276
-2.31449
-2.31449
-2.31449
-2.1362
-2.1362
-2.1362
-1.95788
-1.95788
-1.95788
-1.77933
-1.77933
-1.77933
-1.60085
-1.60085
-1.60085
-1.42334
-1.42334
-1.42334
-1.22973
-1.22973
-1.22973
-1.22585
-1.22585
-1.22585
-1.22647
-1.22647
-1.22647
-1.22662
-1.22662
-1.22662
-1.22613
-1.22613
-1.22613
-1.22598
-1.22598
-1.22598
-1.22599
-1.22599
-1.22599
-1.226
-1.226
-1.226
-1.226
-1.226
-1.226
-1.22599
-1.22599
-1.22599
-1.22599
-1.22599
-1.22599
-1.22599
-1.22599
-1.22599
-1.22599
-1.22599
-1.22599
-1.22599
-1.22599
-1.22599
-1.22599
-1.22599
-1.22599
-1.22599
-1.22599
-1.22599
-1.22599
-1.22599
-1.22599
-1.22599
-1.22599
-1.22599
-1.22599
-1.22599
-1.22599
-1.22599
-1.22599
-1.22599
-1.226
-1.226
-1.226
-1.226
-1.226
-1.226
-1.22599
-1.22599
-1.22599
-1.22599
-1.22599
-1.22599
-1.226
-1.226
-1.226
-1.22601
-1.22601
-1.22601
-1.22602
-1.22602
-1.22602
-1.226
-1.226
-1.226
-1.22603
-1.22603
-1.22603
-1.22633
-1.22633
-1.22633
-1.22691
-1.22691
-1.22691
-1.22489
-1.22489
-1.22488
-1.21988
-1.21989
-1.21989
-1.24477
-1.24477
-1.24476
-1.24961
-1.24961
-1.24961
-3.37404
-3.37404
-3.37404
-3.40682
-3.40682
-3.40681
-3.28517
-3.28517
-3.28517
-3.31935
-3.31935
-3.31935
-3.19616
-3.19616
-3.19616
-3.23063
-3.23063
-3.23063
-3.10689
-3.10689
-3.10689
-3.14151
-3.14151
-3.1415
-3.01753
-3.01753
-3.01753
-3.05204
-3.05204
-3.05203
-2.92831
-2.92831
-2.92831
-2.96262
-2.96262
-2.96262
-2.83922
-2.83922
-2.83922
-2.87347
-2.87347
-2.87347
-2.75011
-2.75011
-2.75011
-2.78443
-2.78443
-2.78443
-2.66095
-2.66095
-2.66095
-2.69533
-2.69533
-2.69533
-2.57177
-2.57177
-2.57177
-2.60615
-2.60615
-2.60615
-2.48257
-2.48257
-2.48257
-2.51693
-2.51693
-2.51693
-2.39339
-2.39339
-2.39339
-2.42771
-2.42771
-2.42771
-2.30421
-2.30421
-2.30421
-2.33851
-2.33851
-2.33851
-2.21504
-2.21504
-2.21504
-2.24932
-2.24932
-2.24932
-2.12589
-2.12589
-2.12589
-2.16016
-2.16016
-2.16016
-2.03677
-2.03677
-2.03677
-2.07105
-2.07105
-2.07105
-1.94781
-1.94781
-1.94781
-1.98213
-1.98213
-1.98213
-1.85933
-1.85933
-1.85933
-1.89385
-1.89385
-1.89385
-1.77188
-1.77188
-1.77188
-1.80709
-1.80709
-1.80708
-1.68377
-1.68377
-1.68378
-1.72069
-1.72069
-1.72069
-1.59706
-1.59706
-1.59706
-1.63503
-1.63503
-1.63503
-1.5089
-1.50891
-1.50891
-1.54932
-1.54932
-1.54932
-1.42097
-1.42097
-1.42097
-1.46238
-1.46239
-1.4624
-1.33368
-1.33367
-1.33367
-1.29412
-1.29412
-1.29412
-1.37633
-1.37633
-1.37633
-1.25557
-1.25557
-1.25557
-3.16061
-3.16061
-3.16061
-3.11623
-3.11623
-3.11623
-3.29651
-3.2965
-3.2965
-3.07093
-3.07092
-3.07092
-3.34437
-3.34437
-3.34438
-2.93807
-2.93807
-2.93807
-2.76008
-2.76008
-2.76008
-2.58188
-2.58188
-2.58188
-2.40363
-2.40363
-2.40363
-2.22535
-2.22535
-2.22535
-2.04706
-2.04706
-2.04706
-1.86864
-1.86864
-1.86864
-1.69002
-1.69002
-1.69002
-1.51192
-1.51192
-1.51191
-1.33762
-1.33763
-1.33764
-1.25266
-1.25266
-1.25266
-1.22682
-1.22682
-1.22682
-1.25328
-1.25328
-1.25328
-1.22672
-1.22672
-1.22672
-1.22635
-1.22635
-1.22635
-1.22602
-1.22602
-1.22602
-1.22598
-1.22598
-1.22598
-1.22599
-1.22599
-1.22599
-1.226
-1.226
-1.226
-1.22599
-1.22599
-1.22599
-1.22599
-1.22599
-1.22599
-1.22599
-1.22599
-1.22599
-1.22599
-1.22599
-1.22599
-1.22599
-1.22599
-1.22599
-1.22599
-1.22599
-1.22599
-1.22599
-1.22599
-1.22599
-1.22599
-1.22599
-1.22599
-1.22599
-1.22599
-1.22599
-1.22599
-1.22599
-1.22599
-1.22599
-1.22599
-1.22599
-1.226
-1.226
-1.226
-1.226
-1.226
-1.226
-1.226
-1.226
-1.226
-1.22599
-1.22599
-1.22599
-1.22599
-1.22599
-1.22599
-1.226
-1.226
-1.226
-1.22602
-1.22602
-1.22602
-1.22602
-1.22602
-1.22602
-1.226
-1.226
-1.226
-1.22614
-1.22614
-1.22614
-1.22662
-1.22662
-1.22662
-1.22722
-1.22722
-1.22722
-2.18078
-2.18078
-2.18078
-2.98193
-2.98193
-2.98193
-2.35903
-2.35903
-2.35903
-3.44631
-3.44437
-3.44242
-2.80426
-2.80426
-2.80426
-2.62631
-2.6263
-2.6263
-2.44814
-2.44814
-2.44814
-2.26991
-2.26991
-2.26991
-2.09165
-2.09165
-2.09165
-1.91324
-1.91324
-1.91324
-1.73439
-1.73439
-1.73439
-1.55612
-1.55612
-1.55612
-1.38264
-1.38265
-1.38267
-1.25318
-1.25318
-1.25318
-1.25297
-1.25297
-1.25296
-1.25214
-1.25214
-1.25214
-1.25196
-1.25196
-1.25196
-1.25197
-1.25197
-1.25197
-1.25198
-1.25198
-1.25198
-1.25198
-1.25198
-1.25198
-1.25197
-1.25197
-1.25197
-1.25197
-1.25197
-1.25197
-1.25196
-1.25196
-1.25196
-1.25196
-1.25196
-1.25196
-1.25196
-1.25196
-1.25196
-1.25197
-1.25197
-1.25197
-1.25197
-1.25197
-1.25197
-1.25197
-1.25197
-1.25197
-1.25197
-1.25197
-1.25197
-1.25197
-1.25197
-1.25197
-1.25198
-1.25198
-1.25198
-1.25198
-1.25198
-1.25198
-1.25198
-1.25198
-1.25198
-1.25198
-1.25198
-1.25198
-1.25198
-1.25198
-1.25198
-1.25199
-1.25199
-1.25199
-1.25202
-1.25202
-1.25202
-1.25203
-1.25203
-1.25203
-1.252
-1.252
-1.252
-1.25216
-1.25216
-1.25216
-1.25294
-1.25294
-1.25294
-1.25412
-1.25412
-1.25412
-2.53723
-2.53723
-2.53723
-2.00249
-2.00249
-2.00249
-1.82385
-1.82385
-1.82385
-1.64506
-1.64506
-1.64507
-1.46777
-1.46777
-1.46778
-1.252
-1.252
-1.252
-1.25196
-1.25196
-1.25196
-1.25198
-1.25198
-1.25198
-1.25198
-1.25198
-1.25198
-1.25198
-1.25198
-1.25198
-1.25197
-1.25197
-1.25197
-1.25197
-1.25197
-1.25197
-1.25196
-1.25196
-1.25196
-1.25196
-1.25196
-1.25196
-1.25197
-1.25197
-1.25197
-1.25197
-1.25197
-1.25197
-1.25197
-1.25197
-1.25197
-1.25197
-1.25197
-1.25197
-1.25197
-1.25197
-1.25197
-1.25198
-1.25198
-1.25198
-1.25198
-1.25198
-1.25198
-1.25198
-1.25198
-1.25198
-1.25198
-1.25198
-1.25198
-1.25198
-1.25198
-1.25198
-1.25198
-1.25198
-1.25198
-1.25201
-1.25201
-1.25201
-1.25203
-1.25203
-1.25203
-1.25202
-1.25202
-1.25202
-1.25202
-1.25202
-1.25202
-1.25246
-1.25246
-1.25246
-1.25352
-1.25352
-1.25352
-1.2521
-1.2521
-1.25209
-3.25173
-3.25173
-3.25172
-2.71534
-2.71534
-2.71534
-2.89309
-2.89309
-2.89309
-1.25247
-1.25247
-1.25247
-1.25334
-1.25334
-1.25334
-3.45076
-3.44882
-3.44688
-3.4153
-3.41531
-3.41531
-3.42012
-3.42012
-3.42012
-3.39312
-3.39312
-3.39312
-3.42083
-3.42083
-3.42083
-3.39676
-3.39676
-3.39675
-3.41871
-3.41871
-3.4187
-3.39537
-3.39537
-3.39537
-3.41662
-3.41662
-3.41662
-3.39237
-3.39236
-3.39236
-3.41538
-3.41538
-3.41538
-3.39028
-3.39028
-3.39028
-3.4148
-3.4148
-3.4148
-3.38922
-3.38922
-3.38922
-3.41454
-3.41454
-3.41454
-3.38876
-3.38876
-3.38876
-3.41442
-3.41442
-3.41442
-3.38855
-3.38855
-3.38855
-3.41435
-3.41435
-3.41435
-3.38843
-3.38843
-3.38843
-3.4143
-3.4143
-3.4143
-3.38836
-3.38836
-3.38836
-3.41427
-3.41427
-3.41427
-3.38832
-3.38832
-3.38832
-3.41425
-3.41425
-3.41425
-3.38829
-3.38829
-3.38829
-3.41424
-3.41424
-3.41424
-3.38827
-3.38827
-3.38827
-3.41424
-3.41424
-3.41424
-3.38826
-3.38826
-3.38826
-3.41424
-3.41424
-3.41424
-3.38826
-3.38826
-3.38826
-3.41424
-3.41424
-3.41424
-3.38826
-3.38826
-3.38826
-3.41424
-3.41424
-3.41424
-3.38826
-3.38826
-3.38826
-3.41424
-3.41424
-3.41424
-3.38826
-3.38826
-3.38826
-3.41424
-3.41424
-3.41424
-3.38826
-3.38826
-3.38826
-3.41424
-3.41424
-3.41424
-3.38826
-3.38826
-3.38826
-3.41424
-3.41424
-3.41424
-3.38826
-3.38826
-3.38826
-3.41424
-3.41424
-3.41424
-3.38826
-3.38826
-3.38826
-3.41424
-3.41424
-3.41424
-3.38826
-3.38826
-3.38826
-3.41424
-3.41424
-3.41424
-3.38826
-3.38826
-3.38826
-3.41424
-3.41424
-3.41424
-3.38826
-3.38826
-3.38826
-3.41424
-3.41424
-3.41424
-3.38826
-3.38826
-3.38826
-3.41424
-3.41424
-3.41424
-3.38826
-3.38826
-3.38826
-3.41424
-3.41424
-3.41424
-3.38826
-3.38826
-3.38826
-3.41424
-3.41424
-3.41424
-3.38826
-3.38826
-3.38826
-3.41424
-3.41424
-3.41424
-3.38826
-3.38826
-3.38826
-3.41424
-3.41424
-3.41424
-3.38826
-3.38826
-3.38826
-3.41424
-3.41424
-3.41424
-3.38826
-3.38826
-3.38826
-3.41424
-3.41424
-3.41424
-3.38826
-3.38826
-3.38826
-3.41423
-3.41423
-3.41423
-3.38825
-3.38825
-3.38825
-3.41423
-3.41423
-3.41423
-3.38825
-3.38825
-3.38825
-3.41422
-3.41422
-3.41422
-3.38824
-3.38824
-3.38824
-3.41421
-3.41421
-3.41421
-3.38823
-3.38823
-3.38823
-3.41421
-3.41421
-3.41421
-3.38823
-3.38823
-3.38823
-3.41421
-3.41421
-3.41421
-3.38822
-3.38822
-3.38822
-3.41421
-3.41421
-3.41421
-3.38822
-3.38822
-3.38822
-3.41421
-3.41421
-3.41421
-3.38822
-3.38822
-3.38822
-3.41421
-3.41421
-3.41421
-3.38822
-3.38822
-3.38822
-3.41421
-3.41421
-3.41421
-3.38822
-3.38822
-3.38822
-3.41421
-3.41421
-3.41421
-3.38822
-3.38822
-3.38822
-3.41422
-3.41422
-3.41422
-3.38823
-3.38823
-3.38823
-3.41421
-3.41421
-3.41421
-3.38823
-3.38823
-3.38823
-3.41419
-3.41419
-3.41419
-3.38822
-3.38822
-3.38822
-3.41413
-3.41413
-3.41413
-3.38817
-3.38817
-3.38817
-3.41404
-3.41404
-3.41404
-3.38808
-3.38808
-3.38808
-3.41393
-3.41393
-3.41393
-3.38794
-3.38794
-3.38794
-3.41388
-3.41388
-3.41388
-3.3878
-3.3878
-3.3878
-3.41401
-3.41401
-3.41401
-3.38781
-3.38781
-3.38781
-3.41447
-3.41447
-3.41446
-3.38815
-3.38814
-3.38814
-3.41523
-3.41523
-3.41523
-3.38889
-3.38889
-3.38889
-3.41618
-3.41618
-3.41618
-3.38993
-3.38993
-3.38993
-3.41726
-3.41726
-3.41725
-3.3911
-3.3911
-3.39109
-3.41863
-3.41862
-3.41861
-3.3925
-3.3925
-3.39249
-3.41958
-3.41957
-3.41956
-3.39451
-3.3945
-3.39449
-3.41562
-3.41561
-3.41559
-3.38563
-3.38562
-3.38561
-3.39321
-3.39319
-3.39318
-2.80363
-2.80363
-2.80363
-3.06899
-3.06899
-3.06899
-1.30483
-1.30483
-1.30483
-2.62603
-2.62603
-2.62603
-2.89207
-2.89207
-2.89207
-2.84742
-2.84742
-2.84742
-2.44804
-2.44804
-2.44804
-2.00257
-2.00257
-2.00257
-2.26988
-2.26988
-2.26988
-2.0917
-2.0917
-2.0917
-2.04718
-2.04718
-2.04718
-2.98046
-2.98046
-2.98046
-2.93558
-2.93558
-2.93558
-1.82372
-1.82372
-1.82372
-1.64414
-1.64414
-1.64415
-1.46703
-1.46702
-1.46702
-1.30396
-1.30396
-1.30396
-1.3066
-1.3066
-1.3066
-3.34812
-3.34812
-3.34813
-1.30817
-1.30817
-1.30817
-3.15858
-3.15858
-3.15858
-3.11225
-3.11225
-3.11225
-1.30535
-1.30535
-1.30535
-1.33193
-1.33194
-1.33194
-3.39595
-3.39597
-3.39598
-1.3042
-1.3042
-1.3042
-1.33003
-1.33003
-1.33003
-1.30394
-1.30394
-1.30394
-1.30397
-1.30397
-1.30397
-1.30398
-1.30398
-1.30398
-1.30396
-1.30396
-1.30396
-1.30395
-1.30395
-1.30395
-1.30394
-1.30394
-1.30394
-1.30394
-1.30394
-1.30394
-1.30394
-1.30394
-1.30394
-1.30394
-1.30394
-1.30394
-1.30395
-1.30395
-1.30395
-1.30395
-1.30395
-1.30395
-1.30394
-1.30394
-1.30394
-1.30395
-1.30395
-1.30395
-1.30396
-1.30396
-1.30396
-1.30398
-1.30398
-1.30398
-1.30398
-1.30398
-1.30398
-1.30397
-1.30397
-1.30397
-1.30396
-1.30396
-1.30396
-1.30397
-1.30397
-1.30397
-1.30402
-1.30402
-1.30402
-1.30408
-1.30408
-1.30408
-1.30405
-1.30405
-1.30405
-1.304
-1.304
-1.304
-1.30487
-1.30487
-1.30487
-1.30697
-1.30697
-1.30697
-1.3079
-1.30789
-1.30789
-2.53707
-2.53707
-2.53707
-2.49249
-2.49249
-2.49249
-3.25083
-3.25083
-3.25082
-3.20299
-3.20298
-3.20298
-2.18079
-2.18079
-2.18079
-2.13626
-2.13626
-2.13626
-1.28929
-1.28929
-1.28928
-3.29944
-3.29944
-3.29945
-3.33294
-3.33294
-3.33294
-3.21116
-3.21116
-3.21115
-3.24579
-3.24579
-3.24579
-3.12156
-3.12156
-3.12155
-3.15675
-3.15674
-3.15673
-3.03165
-3.03165
-3.03165
-3.06655
-3.06655
-3.06655
-2.9422
-2.9422
-2.9422
-2.97672
-2.97672
-2.97672
-2.85324
-2.85324
-2.85324
-2.88766
-2.88766
-2.88766
-2.76433
-2.76433
-2.76433
-2.79889
-2.79889
-2.79889
-2.67523
-2.67523
-2.67523
-2.70991
-2.70991
-2.70991
-2.58599
-2.58599
-2.58599
-2.62069
-2.62069
-2.62069
-2.4967
-2.4967
-2.4967
-2.53138
-2.53138
-2.53138
-2.40743
-2.40743
-2.40743
-2.44207
-2.44207
-2.44207
-2.31819
-2.31819
-2.31819
-2.35279
-2.35279
-2.35279
-2.22899
-2.22899
-2.22899
-2.26356
-2.26356
-2.26356
-2.13981
-2.13981
-2.13981
-2.17436
-2.17436
-2.17436
-2.0507
-2.0507
-2.0507
-2.08519
-2.08519
-2.08519
-1.96185
-1.96185
-1.96185
-1.99615
-1.99615
-1.99615
-1.87407
-1.87407
-1.87407
-1.90775
-1.90775
-1.90775
-1.7893
-1.78929
-1.78929
-1.82176
-1.82175
-1.82175
-1.70864
-1.70864
-1.70865
-1.74204
-1.74204
-1.74204
-1.62526
-1.62527
-1.62527
-1.66195
-1.66197
-1.66198
-1.54364
-1.54364
-1.54365
-1.58162
-1.58162
-1.58162
-1.30404
-1.30405
-1.30406
-3.41082
-3.41083
-3.41083
-2.35898
-2.35898
-2.35898
-2.3144
-2.3144
-2.3144
-1.30589
-1.30588
-1.30588
-1.33161
-1.33161
-1.33161
-1.32981
-1.32982
-1.32984
-3.38471
-3.38471
-3.38472
-3.02367
-3.02367
-3.02367
-1.95801
-1.95801
-1.95801
-1.91328
-1.91328
-1.91328
-1.33437
-1.33437
-1.33438
-2.71495
-2.71495
-2.71495
-1.3787
-1.37871
-1.37873
-2.58145
-2.58145
-2.58145
-2.67032
-2.67032
-2.67032
-1.86856
-1.86856
-1.86856
-2.40347
-2.40347
-2.40347
-1.3252
-1.32519
-1.32518
-3.29935
-3.29935
-3.29935
-1.77869
-1.77869
-1.77869
-1.73388
-1.73388
-1.73388
-1.68859
-1.68859
-1.68859
-1.55514
-1.55514
-1.55514
-1.33053
-1.33053
-1.33053
-2.22532
-2.22532
-2.22532
-1.30693
-1.30692
-1.30692
-1.30392
-1.30392
-1.30392
-1.30396
-1.30396
-1.30396
-1.30398
-1.30398
-1.30398
-1.30398
-1.30398
-1.30398
-1.30395
-1.30395
-1.30395
-1.30395
-1.30395
-1.30395
-1.30394
-1.30394
-1.30394
-1.30394
-1.30394
-1.30394
-1.30394
-1.30394
-1.30394
-1.30394
-1.30394
-1.30394
-1.30395
-1.30395
-1.30395
-1.30394
-1.30394
-1.30394
-1.30394
-1.30394
-1.30394
-1.30396
-1.30396
-1.30396
-1.30397
-1.30397
-1.30397
-1.30398
-1.30398
-1.30398
-1.30398
-1.30398
-1.30398
-1.30397
-1.30397
-1.30397
-1.30397
-1.30397
-1.30397
-1.30399
-1.30399
-1.30399
-1.30406
-1.30406
-1.30406
-1.30409
-1.30409
-1.30409
-1.304
-1.304
-1.304
-1.30426
-1.30426
-1.30426
-1.30587
-1.30587
-1.30587
-1.30832
-1.30831
-1.30831
-1.32996
-1.32996
-1.32996
-1.32994
-1.32994
-1.32994
-1.46057
-1.46059
-1.4606
-1.32993
-1.32993
-1.32993
-1.33719
-1.33719
-1.33719
-1.33298
-1.33298
-1.33298
-1.33063
-1.33063
-1.33063
-1.32997
-1.32997
-1.32997
-1.3301
-1.3301
-1.3301
-1.33008
-1.33008
-1.33008
-1.33
-1.33
-1.33
-1.32996
-1.32996
-1.32996
-1.32995
-1.32995
-1.32995
-1.32996
-1.32996
-1.32996
-1.32997
-1.32997
-1.32997
-2.75905
-2.75905
-2.75905
-1.33453
-1.33453
-1.33453
-1.33166
-1.33166
-1.33165
-1.33009
-1.33009
-1.33009
-1.33003
-1.33003
-1.33003
-1.33011
-1.33011
-1.33011
-1.32992
-1.32992
-1.32992
-1.33004
-1.33004
-1.33004
-1.32997
-1.32997
-1.32997
-1.32995
-1.32995
-1.32995
-1.32996
-1.32996
-1.32996
-1.32997
-1.32997
-1.32997
-1.32997
-1.32997
-1.32997
-1.32995
-1.32995
-1.32995
-1.32994
-1.32994
-1.32994
-1.32992
-1.32992
-1.32992
-1.32993
-1.32993
-1.32993
-1.32993
-1.32993
-1.32993
-1.32992
-1.32992
-1.32992
-1.32991
-1.32991
-1.32991
-1.32991
-1.32991
-1.32991
-1.32992
-1.32992
-1.32992
-1.32993
-1.32993
-1.32993
-1.32994
-1.32994
-1.32994
-1.32997
-1.32997
-1.32997
-1.33371
-1.33371
-1.33371
-1.3299
-1.3299
-1.3299
-1.41865
-1.41865
-1.41865
-1.59894
-1.59894
-1.59894
-1.32993
-1.32993
-1.32993
-1.32993
-1.32993
-1.32993
-1.32992
-1.32992
-1.32992
-1.32991
-1.32991
-1.32991
-1.32992
-1.32992
-1.32992
-1.32992
-1.32992
-1.32992
-1.32993
-1.32993
-1.32993
-1.32996
-1.32996
-1.32996
-1.32997
-1.32997
-1.32997
-1.32996
-1.32996
-1.32996
-1.51018
-1.51018
-1.51017
-1.32991
-1.32991
-1.32991
-1.33311
-1.33311
-1.33311
-1.32993
-1.32993
-1.32993
-1.32997
-1.32997
-1.32997
-1.50141
-1.50142
-1.50144
-3.35
-3.34999
-3.34999
-3.34611
-3.34611
-3.34611
-3.32483
-3.32482
-3.32481
-3.3416
-3.3416
-3.3416
-3.3187
-3.31869
-3.31869
-3.33883
-3.33883
-3.33883
-3.31442
-3.31442
-3.31442
-3.33756
-3.33756
-3.33756
-3.31228
-3.31228
-3.31228
-3.33699
-3.33699
-3.33699
-3.31138
-3.31138
-3.31138
-3.3367
-3.3367
-3.3367
-3.31094
-3.31094
-3.31094
-3.33653
-3.33653
-3.33653
-3.31068
-3.31068
-3.31068
-3.33643
-3.33643
-3.33643
-3.31053
-3.31053
-3.31053
-3.33636
-3.33636
-3.33636
-3.31043
-3.31043
-3.31043
-3.33632
-3.33632
-3.33632
-3.31037
-3.31037
-3.31037
-3.33629
-3.33629
-3.33629
-3.31033
-3.31033
-3.31033
-3.33628
-3.33628
-3.33628
-3.3103
-3.3103
-3.3103
-3.33628
-3.33628
-3.33628
-3.31029
-3.31029
-3.31029
-3.33628
-3.33628
-3.33628
-3.31029
-3.31029
-3.31029
-3.33628
-3.33628
-3.33628
-3.31029
-3.31029
-3.31029
-3.33628
-3.33628
-3.33628
-3.31029
-3.31029
-3.31029
-3.33628
-3.33628
-3.33628
-3.31029
-3.31029
-3.31029
-3.33628
-3.33628
-3.33628
-3.31029
-3.31029
-3.31029
-3.33628
-3.33628
-3.33628
-3.3103
-3.3103
-3.3103
-3.33628
-3.33628
-3.33628
-3.3103
-3.3103
-3.3103
-3.33629
-3.33629
-3.33629
-3.3103
-3.3103
-3.3103
-3.33629
-3.33629
-3.33629
-3.31031
-3.31031
-3.31031
-3.33629
-3.33629
-3.33629
-3.31031
-3.31031
-3.31031
-3.33628
-3.33628
-3.33628
-3.3103
-3.3103
-3.3103
-3.33628
-3.33628
-3.33628
-3.3103
-3.3103
-3.3103
-3.33628
-3.33628
-3.33628
-3.31029
-3.31029
-3.31029
-3.33628
-3.33628
-3.33628
-3.31029
-3.31029
-3.31029
-3.33628
-3.33628
-3.33628
-3.3103
-3.3103
-3.3103
-3.33629
-3.33629
-3.33629
-3.3103
-3.3103
-3.3103
-3.33629
-3.33629
-3.33629
-3.31031
-3.31031
-3.31031
-3.33628
-3.33628
-3.33628
-3.3103
-3.3103
-3.3103
-3.33627
-3.33627
-3.33627
-3.3103
-3.3103
-3.3103
-3.33626
-3.33626
-3.33626
-3.31028
-3.31028
-3.31028
-3.33625
-3.33625
-3.33625
-3.31027
-3.31027
-3.31027
-3.33624
-3.33624
-3.33624
-3.31025
-3.31025
-3.31025
-3.33623
-3.33623
-3.33623
-3.31024
-3.31024
-3.31024
-3.33622
-3.33622
-3.33622
-3.31023
-3.31023
-3.31023
-3.33622
-3.33622
-3.33622
-3.31023
-3.31023
-3.31023
-3.33622
-3.33622
-3.33622
-3.31022
-3.31022
-3.31022
-3.33622
-3.33622
-3.33622
-3.31022
-3.31022
-3.31022
-3.33622
-3.33622
-3.33622
-3.31022
-3.31022
-3.31022
-3.33622
-3.33622
-3.33622
-3.31022
-3.31022
-3.31022
-3.33624
-3.33623
-3.33623
-3.31024
-3.31024
-3.31024
-3.33624
-3.33624
-3.33624
-3.31025
-3.31025
-3.31025
-3.33623
-3.33623
-3.33623
-3.31025
-3.31025
-3.31025
-3.33617
-3.33617
-3.33617
-3.31022
-3.31022
-3.31022
-3.33604
-3.33604
-3.33604
-3.31012
-3.31012
-3.31012
-3.33582
-3.33582
-3.33582
-3.3099
-3.30991
-3.30991
-3.33556
-3.33556
-3.33556
-3.30959
-3.30959
-3.30959
-3.33546
-3.33546
-3.33546
-3.3093
-3.3093
-3.3093
-3.33583
-3.33583
-3.33583
-3.30936
-3.30936
-3.30936
-3.33688
-3.33687
-3.33687
-3.31015
-3.31015
-3.31014
-3.33834
-3.33834
-3.33834
-3.31164
-3.31164
-3.31163
-3.33978
-3.33978
-3.33978
-3.31328
-3.31328
-3.31328
-3.3412
-3.3412
-3.34119
-3.31466
-3.31465
-3.31465
-3.34354
-3.34354
-3.34353
-3.31637
-3.31637
-3.31637
-3.3464
-3.34639
-3.34639
-3.31612
-3.31612
-3.31613
-3.32182
-3.32182
-3.32182
-2.40338
-2.40338
-2.40338
-1.86882
-1.86882
-1.86882
-1.59723
-1.59724
-1.59724
-2.84653
-2.84653
-2.84653
-1.95819
-1.95819
-1.95819
-1.91373
-1.91373
-1.91372
-1.38193
-1.38193
-1.38193
-1.38191
-1.38191
-1.38191
-2.93411
-2.93411
-2.93411
-2.88971
-2.88971
-2.88971
-1.68804
-1.68804
-1.68804
-1.64188
-1.64189
-1.6419
-1.38189
-1.38189
-1.38189
-1.4079
-1.4079
-1.4079
-1.38252
-1.38252
-1.38252
-1.38643
-1.38643
-1.38642
-2.58118
-2.58118
-2.58118
-3.33152
-3.33152
-3.33151
-3.29282
-3.29281
-3.29281
-2.22529
-2.22529
-2.22529
-1.38535
-1.38535
-1.38535
-3.34524
-3.34524
-3.34523
-3.3255
-3.32549
-3.32548
-3.31425
-3.31424
-3.31423
-1.51102
-1.51103
-1.51103
-1.38197
-1.38197
-1.38197
-1.38196
-1.38196
-1.38196
-1.40796
-1.40796
-1.40796
-1.38841
-1.38841
-1.3884
-1.41492
-1.41491
-1.41491
-1.38196
-1.38196
-1.38196
-1.38193
-1.38193
-1.38193
-1.3819
-1.3819
-1.3819
-1.38189
-1.38189
-1.38189
-1.38189
-1.38189
-1.38189
-1.38189
-1.38189
-1.38189
-1.38191
-1.38191
-1.38191
-1.3819
-1.3819
-1.3819
-1.40789
-1.40789
-1.40789
-1.38189
-1.38189
-1.38189
-1.40788
-1.40788
-1.40788
-1.38191
-1.38191
-1.38191
-1.4079
-1.4079
-1.4079
-1.38208
-1.38208
-1.38208
-1.392
-1.39201
-1.39201
-1.3819
-1.3819
-1.3819
-1.41551
-1.41552
-1.41553
-1.38192
-1.38192
-1.38192
-1.38195
-1.38195
-1.38195
-1.38197
-1.38197
-1.38197
-1.38197
-1.38197
-1.38197
-1.38195
-1.38195
-1.38195
-1.38194
-1.38194
-1.38194
-1.38198
-1.38198
-1.38198
-1.38201
-1.38201
-1.38201
-1.40805
-1.40805
-1.40805
-1.3819
-1.3819
-1.3819
-1.40789
-1.40789
-1.40789
-1.3822
-1.3822
-1.3822
-1.38209
-1.38209
-1.38209
-1.38203
-1.38203
-1.38203
-1.38445
-1.38445
-1.38445
-1.38196
-1.38196
-1.38196
-1.40797
-1.40797
-1.40797
-2.66993
-2.66993
-2.66993
-2.62536
-2.62536
-2.62536
-3.2293
-3.22931
-3.22931
-3.26614
-3.26615
-3.26616
-3.13771
-3.1377
-3.1377
-3.17565
-3.17564
-3.17563
-3.04684
-3.04684
-3.04685
-3.08282
-3.08282
-3.08282
-2.95736
-2.95736
-2.95736
-2.99258
-2.99258
-2.99258
-2.86876
-2.86876
-2.86876
-2.90394
-2.90394
-2.90394
-2.78012
-2.78012
-2.78012
-2.81558
-2.81558
-2.81558
-2.69106
-2.69106
-2.69106
-2.72672
-2.72672
-2.72672
-2.60172
-2.60172
-2.60172
-2.63741
-2.63741
-2.63741
-2.51231
-2.51231
-2.51231
-2.54795
-2.54795
-2.54795
-2.42294
-2.42294
-2.42294
-2.4585
-2.4585
-2.4585
-2.33362
-2.33362
-2.33362
-2.36913
-2.36913
-2.36913
-2.24437
-2.24437
-2.24437
-2.27983
-2.27983
-2.27983
-2.15515
-2.15515
-2.15515
-2.19058
-2.19058
-2.19058
-2.06593
-2.06593
-2.06593
-2.10134
-2.10134
-2.10134
-1.97674
-1.97674
-1.97674
-2.01204
-2.01204
-2.01204
-1.88788
-1.88788
-1.88788
-1.92258
-1.92258
-1.92258
-1.80111
-1.80111
-1.8011
-1.83355
-1.83355
-1.83355
-1.72087
-1.72088
-1.72088
-1.74748
-1.74748
-1.74748
-1.66946
-1.66946
-1.66947
-1.56252
-1.56252
-1.56252
-1.38191
-1.38191
-1.38191
-1.4079
-1.4079
-1.4079
-1.37268
-1.37268
-1.37268
-2.31435
-2.31435
-2.31435
-2.26979
-2.26979
-2.26979
-1.38398
-1.38398
-1.38398
-1.40917
-1.40917
-1.40917
-2.49237
-2.49237
-2.49237
-2.44781
-2.44781
-2.44781
-3.02141
-3.02141
-3.02141
-2.97673
-2.97673
-2.97673
-3.10878
-3.10879
-3.10879
-3.06326
-3.06326
-3.06326
-1.38842
-1.38842
-1.38842
-1.41699
-1.41699
-1.417
-1.77878
-1.77878
-1.77879
-1.73342
-1.73342
-1.73343
-2.04725
-2.04725
-2.04725
-2.00282
-2.00282
-2.00282
-1.38185
-1.38185
-1.38185
-1.40784
-1.40784
-1.40784
-1.40789
-1.40789
-1.40789
-1.40788
-1.40788
-1.40788
-1.3819
-1.3819
-1.3819
-1.82407
-1.82407
-1.82407
-2.53668
-2.53668
-2.53668
-1.41469
-1.41468
-1.41468
-1.40794
-1.40794
-1.40794
-1.40787
-1.40787
-1.40787
-1.41155
-1.41155
-1.41155
-1.38286
-1.38287
-1.38288
-1.4079
-1.4079
-1.4079
-1.47985
-1.47986
-1.47987
-2.35883
-2.35883
-2.35883
-2.18075
-2.18075
-2.18075
-2.13625
-2.13625
-2.13625
-2.80206
-2.80206
-2.80206
-2.75838
-2.75838
-2.75838
-1.40723
-1.40723
-1.40724
-1.40797
-1.40797
-1.40797
-1.38197
-1.38197
-1.38197
-1.38195
-1.38195
-1.38195
-1.41921
-1.41921
-1.41921
-1.50817
-1.50816
-1.50815
-1.40795
-1.40795
-1.40795
-1.38195
-1.38195
-1.38195
-1.40809
-1.40809
-1.40809
-1.40793
-1.40793
-1.40793
-1.38191
-1.38191
-1.38191
-1.40788
-1.40788
-1.40788
-1.38189
-1.38189
-1.38189
-1.38189
-1.38189
-1.38189
-1.42516
-1.42517
-1.42519
-1.38191
-1.38191
-1.38191
-1.38193
-1.38193
-1.38193
-2.71388
-2.71388
-2.71388
-1.38197
-1.38197
-1.38197
-1.38197
-1.38197
-1.38197
-1.38195
-1.38195
-1.38195
-1.38195
-1.38195
-1.38195
-1.40799
-1.40799
-1.40799
-1.40826
-1.40826
-1.40826
-1.38219
-1.38219
-1.38219
-1.38216
-1.38216
-1.38216
-1.4082
-1.4082
-1.4082
-1.40815
-1.40815
-1.40815
-1.38196
-1.38196
-1.38196
-1.38271
-1.38271
-1.38271
-1.40795
-1.40795
-1.40795
-1.38656
-1.38656
-1.38656
-3.19798
-3.19798
-3.19798
-1.41441
-1.41441
-1.41442
-1.55141
-1.55141
-1.55141
-1.41222
-1.41222
-1.41222
-1.40826
-1.40826
-1.40826
-1.40803
-1.40803
-1.40803
-1.40794
-1.40794
-1.40794
-1.40795
-1.40795
-1.40795
-1.40797
-1.40797
-1.40797
-1.40797
-1.40797
-1.40797
-1.40792
-1.40792
-1.40792
-1.40789
-1.40789
-1.40789
-1.40789
-1.40789
-1.40789
-1.40787
-1.40787
-1.40787
-1.40787
-1.40787
-1.40787
-3.1501
-3.1501
-3.15011
-1.40796
-1.40796
-1.40796
-2.09177
-2.09177
-2.09176
-1.40791
-1.40791
-1.40791
-1.40797
-1.40797
-1.40797
-1.40781
-1.40781
-1.40782
-1.46557
-1.46556
-1.46556
-1.40794
-1.40794
-1.40794
-1.40787
-1.40787
-1.40787
-1.40789
-1.40789
-1.40789
-1.40787
-1.40787
-1.40787
-1.40796
-1.40796
-1.40796
-1.40793
-1.40793
-1.40793
-1.40797
-1.40797
-1.40797
-1.40823
-1.40823
-1.40823
-1.40972
-1.40972
-1.40972
-1.40792
-1.40792
-1.40792
-3.23928
-3.23928
-3.23928
-3.14448
-3.14448
-3.14449
-3.26813
-3.26813
-3.26814
-3.26294
-3.26295
-3.26295
-3.23957
-3.23958
-3.23959
-3.26078
-3.26078
-3.26078
-3.23586
-3.23587
-3.23587
-3.25977
-3.25977
-3.25977
-3.23447
-3.23447
-3.23447
-3.25919
-3.2592
-3.2592
-3.23366
-3.23366
-3.23366
-3.25883
-3.25883
-3.25883
-3.23312
-3.23312
-3.23312
-3.25862
-3.25862
-3.25862
-3.23279
-3.23279
-3.23279
-3.25848
-3.25848
-3.25848
-3.23259
-3.23259
-3.23259
-3.2584
-3.2584
-3.2584
-3.23247
-3.23247
-3.23247
-3.25835
-3.25835
-3.25835
-3.23239
-3.23239
-3.23239
-3.25832
-3.25832
-3.25832
-3.23234
-3.23234
-3.23234
-3.2583
-3.2583
-3.2583
-3.23232
-3.23232
-3.23232
-3.2583
-3.2583
-3.2583
-3.23231
-3.23231
-3.23231
-3.25831
-3.25831
-3.25831
-3.23232
-3.23232
-3.23232
-3.25831
-3.25831
-3.25831
-3.23232
-3.23232
-3.23232
-3.25831
-3.25831
-3.25831
-3.23232
-3.23232
-3.23232
-3.25831
-3.25831
-3.25831
-3.23232
-3.23232
-3.23232
-3.25831
-3.25831
-3.25831
-3.23232
-3.23232
-3.23232
-3.25831
-3.25831
-3.25831
-3.23232
-3.23232
-3.23232
-3.25832
-3.25832
-3.25832
-3.23233
-3.23233
-3.23233
-3.25833
-3.25833
-3.25833
-3.23234
-3.23234
-3.23234
-3.25833
-3.25833
-3.25833
-3.23234
-3.23234
-3.23234
-3.25832
-3.25832
-3.25832
-3.23234
-3.23234
-3.23234
-3.25831
-3.25831
-3.25831
-3.23233
-3.23233
-3.23233
-3.2583
-3.2583
-3.2583
-3.23231
-3.23231
-3.23231
-3.2583
-3.2583
-3.2583
-3.23231
-3.23231
-3.23231
-3.25831
-3.25831
-3.25831
-3.23231
-3.23231
-3.23231
-3.25832
-3.25832
-3.25832
-3.23232
-3.23232
-3.23232
-3.25832
-3.25832
-3.25832
-3.23234
-3.23234
-3.23234
-3.25832
-3.25832
-3.25832
-3.23234
-3.23234
-3.23234
-3.25831
-3.25831
-3.25831
-3.23233
-3.23233
-3.23233
-3.25829
-3.25829
-3.25829
-3.23231
-3.23231
-3.23231
-3.25827
-3.25827
-3.25827
-3.23229
-3.23229
-3.23229
-3.25825
-3.25825
-3.25825
-3.23226
-3.23226
-3.23226
-3.25823
-3.25823
-3.25823
-3.23223
-3.23223
-3.23223
-3.25821
-3.25821
-3.25821
-3.23221
-3.23221
-3.23221
-3.2582
-3.2582
-3.2582
-3.2322
-3.2322
-3.2322
-3.2582
-3.2582
-3.2582
-3.23219
-3.23219
-3.23219
-3.25819
-3.25819
-3.25819
-3.23218
-3.23218
-3.23218
-3.25819
-3.25819
-3.25819
-3.23218
-3.23218
-3.23218
-3.2582
-3.2582
-3.2582
-3.23218
-3.23218
-3.23218
-3.25822
-3.25822
-3.25822
-3.2322