/*--------------------------------*- C++ -*----------------------------------*\
| =========                 |                                                 |
| \\      /  F ield         | OpenFOAM: The Open Source CFD Toolbox           |
|  \\    /   O peration     | Version:  2206                                  |
|   \\  /    A nd           | Website:  www.openfoam.com                      |
|    \\/     M anipulation  |                                                 |
\*---------------------------------------------------------------------------*/
FoamFile
{
    version     2.0;
    format      ascii;
    arch        "LSB;label=32;scalar=64";
    class       volScalarField;
    location    "0";
    object      V;
}
// * * * * * * * * * * * * * * * * * * * * * * * * * * * * * * * * * * * * * //

dimensions      [0 3 0 0 0 0 0];

internalField   nonuniform List<scalar> 
47277
(
3.85189e-05
3.55157e-05
3.25709e-05
3.26644e-05
2.97224e-05
2.68388e-05
3.42455e-05
3.12915e-05
2.83955e-05
2.94603e-05
2.68517e-05
2.42933e-05
3.25344e-05
2.95924e-05
2.67089e-05
3.26473e-05
2.97508e-05
2.69111e-05
3.15428e-05
2.86122e-05
2.574e-05
3.17218e-05
2.87967e-05
2.59294e-05
3.17959e-05
2.88634e-05
2.59893e-05
3.11757e-05
2.82682e-05
2.54184e-05
3.25701e-05
2.96287e-05
2.67458e-05
3.14899e-05
2.8593e-05
2.57537e-05
3.31521e-05
3.02038e-05
2.7314e-05
3.22296e-05
2.93191e-05
2.64663e-05
3.34603e-05
3.05084e-05
2.76148e-05
3.28096e-05
2.98819e-05
2.70122e-05
3.35962e-05
3.06426e-05
2.77475e-05
3.31327e-05
3.01936e-05
2.73125e-05
3.36543e-05
3.07003e-05
2.78047e-05
3.3277e-05
3.03328e-05
2.74466e-05
3.36826e-05
3.07285e-05
2.78328e-05
3.33333e-05
3.03877e-05
2.75002e-05
3.37004e-05
3.07461e-05
2.78502e-05
3.33565e-05
3.04107e-05
2.75232e-05
3.37142e-05
3.07595e-05
2.78633e-05
3.33707e-05
3.04249e-05
2.75372e-05
3.37232e-05
3.07683e-05
2.78719e-05
3.33828e-05
3.04364e-05
2.75482e-05
3.37253e-05
3.07707e-05
2.78746e-05
3.33902e-05
3.04437e-05
2.75554e-05
3.37243e-05
3.07702e-05
2.78745e-05
3.33929e-05
3.04468e-05
2.75589e-05
3.37243e-05
3.07703e-05
2.78748e-05
3.33944e-05
3.04486e-05
2.75608e-05
3.37258e-05
3.07717e-05
2.78759e-05
3.33957e-05
3.04498e-05
2.75619e-05
3.37291e-05
3.07745e-05
2.78782e-05
3.33971e-05
3.04509e-05
2.75627e-05
3.37317e-05
3.07767e-05
2.78801e-05
3.33991e-05
3.04523e-05
2.75637e-05
3.37307e-05
3.07758e-05
2.78793e-05
3.33994e-05
3.04525e-05
2.75637e-05
3.37286e-05
3.07739e-05
2.78778e-05
3.33978e-05
3.04513e-05
2.75629e-05
3.3728e-05
3.07734e-05
2.78773e-05
3.33971e-05
3.04507e-05
2.75624e-05
3.37293e-05
3.07745e-05
2.78781e-05
3.33972e-05
3.04506e-05
2.75623e-05
3.37301e-05
3.07751e-05
2.78785e-05
3.33982e-05
3.04513e-05
2.75626e-05
3.37274e-05
3.07727e-05
2.78766e-05
3.33978e-05
3.0451e-05
2.75623e-05
3.37243e-05
3.07702e-05
2.78745e-05
3.33956e-05
3.04494e-05
2.75613e-05
3.37241e-05
3.077e-05
2.78744e-05
3.33949e-05
3.04489e-05
2.75611e-05
3.3726e-05
3.07718e-05
2.7876e-05
3.33954e-05
3.04494e-05
2.75616e-05
3.37296e-05
3.07749e-05
2.78786e-05
3.33969e-05
3.04506e-05
2.75624e-05
3.37315e-05
3.07765e-05
2.78799e-05
3.3399e-05
3.04521e-05
2.75635e-05
3.3729e-05
3.07743e-05
2.7878e-05
3.33989e-05
3.0452e-05
2.75633e-05
3.37255e-05
3.07712e-05
2.78753e-05
3.33968e-05
3.04504e-05
2.75622e-05
3.37242e-05
3.07701e-05
2.78744e-05
3.33957e-05
3.04496e-05
2.75616e-05
3.37253e-05
3.07711e-05
2.78754e-05
3.33959e-05
3.04498e-05
2.75618e-05
3.37284e-05
3.07739e-05
2.78779e-05
3.33972e-05
3.04509e-05
2.75629e-05
3.37331e-05
3.07782e-05
2.78818e-05
3.33997e-05
3.04531e-05
2.75648e-05
3.37366e-05
3.07815e-05
2.78848e-05
3.34028e-05
3.04559e-05
2.75672e-05
3.37363e-05
3.07814e-05
2.7885e-05
3.34045e-05
3.04576e-05
2.75689e-05
3.37356e-05
3.0781e-05
2.78849e-05
3.34043e-05
3.04578e-05
2.75696e-05
3.37382e-05
3.07834e-05
2.78871e-05
3.34055e-05
3.04591e-05
2.75708e-05
3.37409e-05
3.07858e-05
2.78892e-05
3.34079e-05
3.04611e-05
2.75724e-05
3.37403e-05
3.07854e-05
2.78889e-05
3.34087e-05
3.04618e-05
2.7573e-05
3.37393e-05
3.07845e-05
2.78881e-05
3.34076e-05
3.0461e-05
2.75726e-05
3.37403e-05
3.07853e-05
2.78887e-05
3.34075e-05
3.04608e-05
2.75723e-05
3.37394e-05
3.07844e-05
2.78878e-05
3.34082e-05
3.04612e-05
2.75724e-05
3.37358e-05
3.07811e-05
2.78849e-05
3.34069e-05
3.04601e-05
2.75715e-05
3.37343e-05
3.07799e-05
2.78839e-05
3.34071e-05
3.04605e-05
2.7572e-05
3.37379e-05
3.07836e-05
2.78877e-05
3.34117e-05
3.0465e-05
2.75764e-05
3.37508e-05
3.07964e-05
2.79003e-05
3.34223e-05
3.04754e-05
2.75866e-05
3.3777e-05
3.0822e-05
2.79255e-05
3.34402e-05
3.0493e-05
2.76041e-05
3.38129e-05
3.08573e-05
2.79601e-05
3.34588e-05
3.0512e-05
2.76235e-05
3.38407e-05
3.08846e-05
2.7987e-05
3.34583e-05
3.05138e-05
2.76274e-05
3.38235e-05
3.08678e-05
2.79704e-05
3.3401e-05
3.04619e-05
2.75808e-05
3.37159e-05
3.07616e-05
2.78658e-05
3.32403e-05
3.03107e-05
2.74389e-05
3.34982e-05
3.05465e-05
2.76532e-05
3.2939e-05
3.00237e-05
2.7166e-05
3.31897e-05
3.02417e-05
2.73521e-05
3.24732e-05
2.9579e-05
2.67419e-05
3.2813e-05
2.98699e-05
2.69853e-05
3.1807e-05
2.89463e-05
2.61422e-05
3.23299e-05
2.93936e-05
2.65157e-05
3.08861e-05
2.80757e-05
2.5321e-05
3.17653e-05
2.88372e-05
2.59674e-05
2.97809e-05
2.70314e-05
2.43366e-05
3.23426e-05
2.94096e-05
2.6535e-05
2.95344e-05
2.68313e-05
2.41813e-05
3.44859e-05
3.15344e-05
2.8641e-05
3.26615e-05
3.01084e-05
2.76059e-05
3.02156e-05
2.75978e-05
2.50309e-05
3.54957e-05
3.5099e-05
3.47023e-05
3.58765e-05
3.54764e-05
3.50762e-05
3.49054e-05
3.45145e-05
3.41237e-05
3.46556e-05
3.42676e-05
3.38796e-05
3.44985e-05
3.41126e-05
3.37266e-05
3.45134e-05
3.41273e-05
3.37413e-05
3.4557e-05
3.41705e-05
3.3784e-05
3.45414e-05
3.41551e-05
3.37687e-05
3.44486e-05
3.40634e-05
3.36781e-05
3.47239e-05
3.43359e-05
3.39479e-05
3.53401e-05
3.49451e-05
3.45502e-05
3.50547e-05
3.46691e-05
3.42836e-05
3.97777e-05
3.9333e-05
3.88883e-05
3.45918e-05
3.42072e-05
3.38226e-05
3.53937e-05
3.49981e-05
3.46025e-05
3.56028e-05
3.52044e-05
3.4806e-05
3.49398e-05
3.45492e-05
3.41586e-05
3.47478e-05
3.43595e-05
3.39712e-05
3.4753e-05
3.43647e-05
3.39764e-05
3.47624e-05
3.4374e-05
3.39855e-05
3.47628e-05
3.43744e-05
3.39859e-05
3.47572e-05
3.43688e-05
3.39804e-05
3.47526e-05
3.43642e-05
3.39759e-05
3.47508e-05
3.43625e-05
3.39742e-05
3.47498e-05
3.43615e-05
3.39732e-05
3.475e-05
3.43617e-05
3.39734e-05
3.47521e-05
3.43638e-05
3.39755e-05
3.47535e-05
3.43651e-05
3.39768e-05
3.47525e-05
3.43642e-05
3.39759e-05
3.47522e-05
3.43639e-05
3.39756e-05
3.47549e-05
3.43666e-05
3.39782e-05
3.4759e-05
3.43706e-05
3.39822e-05
3.47627e-05
3.43742e-05
3.39858e-05
3.47623e-05
3.43739e-05
3.39854e-05
3.47603e-05
3.43719e-05
3.39835e-05
3.47591e-05
3.43707e-05
3.39823e-05
3.47642e-05
3.43757e-05
3.39872e-05
3.47823e-05
3.43936e-05
3.40049e-05
3.47965e-05
3.44077e-05
3.40189e-05
3.47748e-05
3.43863e-05
3.39977e-05
3.48026e-05
3.44137e-05
3.40248e-05
3.52087e-05
3.48151e-05
3.44216e-05
3.59866e-05
3.55836e-05
3.51806e-05
3.32835e-05
3.29086e-05
3.25338e-05
2.65975e-05
2.63021e-05
2.60068e-05
2.44769e-05
2.42136e-05
2.39503e-05
2.65818e-05
2.62813e-05
2.59808e-05
3.02789e-05
2.9936e-05
2.95931e-05
3.18162e-05
3.14494e-05
3.10827e-05
2.91277e-05
2.88008e-05
2.84739e-05
2.98143e-05
2.94746e-05
2.9135e-05
2.9311e-05
2.89822e-05
2.86535e-05
2.90015e-05
2.86788e-05
2.8356e-05
2.8379e-05
2.80615e-05
2.7744e-05
2.92645e-05
2.89356e-05
2.86067e-05
2.77423e-05
2.74319e-05
2.71215e-05
2.8465e-05
2.81457e-05
2.78264e-05
2.76512e-05
2.73414e-05
2.70315e-05
2.7779e-05
2.7468e-05
2.71571e-05
2.76942e-05
2.73837e-05
2.70731e-05
2.75901e-05
2.7281e-05
2.69719e-05
2.76754e-05
2.73652e-05
2.7055e-05
2.76351e-05
2.73252e-05
2.70154e-05
2.76063e-05
2.7297e-05
2.69877e-05
2.76573e-05
2.73473e-05
2.70373e-05
2.75433e-05
2.72349e-05
2.69264e-05
2.76183e-05
2.73089e-05
2.69994e-05
2.75128e-05
2.72046e-05
2.68965e-05
2.75652e-05
2.72564e-05
2.69476e-05
2.75124e-05
2.72042e-05
2.68961e-05
2.75328e-05
2.72243e-05
2.69159e-05
2.75287e-05
2.72204e-05
2.6912e-05
2.75265e-05
2.72181e-05
2.69098e-05
2.75476e-05
2.72391e-05
2.69305e-05
2.75351e-05
2.72266e-05
2.69182e-05
2.75585e-05
2.72499e-05
2.69412e-05
2.75416e-05
2.72331e-05
2.69245e-05
2.75497e-05
2.72414e-05
2.6933e-05
2.75138e-05
2.72057e-05
2.68976e-05
2.74613e-05
2.71541e-05
2.6847e-05
2.73501e-05
2.70442e-05
2.67382e-05
2.70291e-05
2.6726e-05
2.6423e-05
2.67538e-05
2.64551e-05
2.61564e-05
2.56018e-05
2.5307e-05
2.50122e-05
2.52043e-05
2.49216e-05
2.46389e-05
2.59785e-05
2.56868e-05
2.5395e-05
2.47921e-05
2.45007e-05
2.42094e-05
2.79194e-05
2.7601e-05
2.72825e-05
2.43636e-05
2.4099e-05
2.38341e-05
2.84508e-05
2.81277e-05
2.78046e-05
2.71722e-05
2.68523e-05
2.65327e-05
3.27306e-05
3.23697e-05
3.20089e-05
2.89617e-05
2.86397e-05
2.83176e-05
3.24433e-05
3.20862e-05
3.17291e-05
2.39843e-05
2.37095e-05
2.34349e-05
3.05313e-05
3.02061e-05
2.98806e-05
4.92206e-05
4.86658e-05
4.81108e-05
3.61585e-05
3.57534e-05
3.53484e-05
3.51457e-05
3.47525e-05
3.43593e-05
3.72713e-05
3.68607e-05
3.64501e-05
3.50257e-05
3.46335e-05
3.42414e-05
3.90342e-05
3.86135e-05
3.81925e-05
3.47902e-05
3.44007e-05
3.40112e-05
3.4546e-05
3.41593e-05
3.37727e-05
3.44913e-05
3.41054e-05
3.37196e-05
3.45376e-05
3.41513e-05
3.3765e-05
3.45604e-05
3.41738e-05
3.37873e-05
3.44945e-05
3.41087e-05
3.37229e-05
3.44892e-05
3.41036e-05
3.3718e-05
3.51229e-05
3.47306e-05
3.43383e-05
3.50347e-05
3.46425e-05
3.42504e-05
3.28706e-05
3.25073e-05
3.2144e-05
3.73654e-05
3.69485e-05
3.65317e-05
3.58843e-05
3.54797e-05
3.50752e-05
3.70398e-05
3.66295e-05
3.62192e-05
3.57347e-05
3.5335e-05
3.49353e-05
3.52373e-05
3.48432e-05
3.44491e-05
3.47952e-05
3.44064e-05
3.40175e-05
3.47462e-05
3.43579e-05
3.39697e-05
3.47601e-05
3.43717e-05
3.39832e-05
3.47633e-05
3.43749e-05
3.39864e-05
3.47596e-05
3.43712e-05
3.39827e-05
3.47536e-05
3.43652e-05
3.39769e-05
3.47512e-05
3.43629e-05
3.39746e-05
3.47499e-05
3.43616e-05
3.39733e-05
3.47493e-05
3.4361e-05
3.39727e-05
3.47505e-05
3.43622e-05
3.39739e-05
3.47525e-05
3.43642e-05
3.39758e-05
3.47529e-05
3.43646e-05
3.39762e-05
3.47526e-05
3.43643e-05
3.3976e-05
3.47539e-05
3.43655e-05
3.39771e-05
3.47575e-05
3.43691e-05
3.39807e-05
3.47626e-05
3.43741e-05
3.39857e-05
3.47636e-05
3.43752e-05
3.39867e-05
3.47626e-05
3.43742e-05
3.39857e-05
3.47603e-05
3.43719e-05
3.39834e-05
3.47617e-05
3.43732e-05
3.39848e-05
3.4774e-05
3.43854e-05
3.39968e-05
3.4794e-05
3.44052e-05
3.40164e-05
3.47946e-05
3.44058e-05
3.4017e-05
3.47678e-05
3.43794e-05
3.39909e-05
3.49593e-05
3.45685e-05
3.41778e-05
3.5592e-05
3.5194e-05
3.4796e-05
3.64032e-05
3.59919e-05
3.55806e-05
3.45299e-05
3.41437e-05
3.37576e-05
3.46669e-05
3.42788e-05
3.38908e-05
3.45288e-05
3.41426e-05
3.37564e-05
4.99366e-05
4.70655e-05
4.42466e-05
3.44117e-05
3.40264e-05
3.36411e-05
3.44352e-05
3.40499e-05
3.36646e-05
3.44862e-05
3.41005e-05
3.37147e-05
3.45359e-05
3.41496e-05
3.37634e-05
3.45024e-05
3.41165e-05
3.37307e-05
3.45588e-05
3.41722e-05
3.37856e-05
3.50999e-05
3.47075e-05
3.43152e-05
3.492e-05
3.45308e-05
3.41415e-05
2.9862e-05
2.95219e-05
2.9182e-05
3.59875e-05
3.55841e-05
3.51808e-05
3.56507e-05
3.5252e-05
3.48533e-05
3.49638e-05
3.45733e-05
3.41827e-05
3.47454e-05
3.43572e-05
3.3969e-05
3.47492e-05
3.43609e-05
3.39726e-05
3.47608e-05
3.43724e-05
3.39839e-05
3.47612e-05
3.43727e-05
3.39843e-05
3.47564e-05
3.4368e-05
3.39796e-05
3.47523e-05
3.43639e-05
3.39756e-05
3.47503e-05
3.4362e-05
3.39737e-05
3.47497e-05
3.43614e-05
3.39731e-05
3.47505e-05
3.43621e-05
3.39738e-05
3.47519e-05
3.43636e-05
3.39752e-05
3.47526e-05
3.43643e-05
3.3976e-05
3.4753e-05
3.43646e-05
3.39763e-05
3.47541e-05
3.43658e-05
3.39774e-05
3.47567e-05
3.43683e-05
3.398e-05
3.47609e-05
3.43724e-05
3.3984e-05
3.47627e-05
3.43743e-05
3.39858e-05
3.4762e-05
3.43735e-05
3.39851e-05
3.47604e-05
3.4372e-05
3.39835e-05
3.47621e-05
3.43737e-05
3.39852e-05
3.47731e-05
3.43845e-05
3.3996e-05
3.47874e-05
3.43987e-05
3.401e-05
3.47822e-05
3.43936e-05
3.40049e-05
3.47649e-05
3.43765e-05
3.39881e-05
3.49461e-05
3.45558e-05
3.41655e-05
3.5602e-05
3.5204e-05
3.4806e-05
3.67315e-05
3.63197e-05
3.5908e-05
3.44599e-05
3.40744e-05
3.36889e-05
3.44896e-05
3.41038e-05
3.37181e-05
3.47784e-05
3.43893e-05
3.40002e-05
3.52394e-05
3.48464e-05
3.44534e-05
3.43561e-05
3.39719e-05
3.35878e-05
3.48065e-05
3.44177e-05
3.40288e-05
3.47382e-05
3.43501e-05
3.39619e-05
3.47557e-05
3.43673e-05
3.39789e-05
3.47621e-05
3.43737e-05
3.39852e-05
3.47587e-05
3.43703e-05
3.39819e-05
3.47538e-05
3.43655e-05
3.39771e-05
3.47512e-05
3.43629e-05
3.39745e-05
3.47499e-05
3.43616e-05
3.39733e-05
3.47502e-05
3.43619e-05
3.39736e-05
3.47516e-05
3.43633e-05
3.3975e-05
3.47527e-05
3.43643e-05
3.3976e-05
3.47526e-05
3.43642e-05
3.39759e-05
3.47528e-05
3.43645e-05
3.39761e-05
3.47547e-05
3.43663e-05
3.3978e-05
3.47581e-05
3.43697e-05
3.39813e-05
3.47617e-05
3.43733e-05
3.39848e-05
3.47625e-05
3.43741e-05
3.39856e-05
3.47613e-05
3.43729e-05
3.39845e-05
3.47605e-05
3.43721e-05
3.39837e-05
3.47648e-05
3.43763e-05
3.39879e-05
3.47792e-05
3.43906e-05
3.40019e-05
3.47882e-05
3.43995e-05
3.40107e-05
3.47698e-05
3.43813e-05
3.39928e-05
3.48032e-05
3.44144e-05
3.40257e-05
3.51755e-05
3.47826e-05
3.43897e-05
3.61502e-05
3.57459e-05
3.53417e-05
3.35322e-05
3.31411e-05
3.275e-05
3.83046e-05
3.7878e-05
3.74515e-05
3.44373e-05
3.40518e-05
3.36664e-05
3.45258e-05
3.41393e-05
3.37527e-05
3.52784e-05
3.48843e-05
3.44901e-05
3.59222e-05
3.55194e-05
3.51166e-05
3.89968e-05
3.65558e-05
3.41621e-05
3.37307e-05
3.33584e-05
3.29861e-05
3.19836e-05
3.16299e-05
3.12763e-05
3.37595e-05
3.33894e-05
3.30193e-05
3.19437e-05
3.15898e-05
3.12359e-05
3.19342e-05
3.1583e-05
3.12319e-05
3.3034e-05
3.26648e-05
3.22956e-05
3.189e-05
3.15334e-05
3.11768e-05
3.38617e-05
3.34825e-05
3.31033e-05
3.30069e-05
3.26371e-05
3.22673e-05
3.43316e-05
3.39473e-05
3.35629e-05
3.39111e-05
3.35314e-05
3.31517e-05
3.4549e-05
3.41626e-05
3.37762e-05
3.44084e-05
3.40235e-05
3.36387e-05
3.46471e-05
3.42598e-05
3.38725e-05
3.46117e-05
3.42248e-05
3.38378e-05
3.46919e-05
3.43043e-05
3.39166e-05
3.46797e-05
3.42921e-05
3.39045e-05
3.4714e-05
3.43261e-05
3.39382e-05
3.47012e-05
3.43134e-05
3.39257e-05
3.47279e-05
3.43399e-05
3.39518e-05
3.4714e-05
3.43261e-05
3.39381e-05
3.47383e-05
3.43501e-05
3.39619e-05
3.47266e-05
3.43386e-05
3.39505e-05
3.47456e-05
3.43574e-05
3.39691e-05
3.47375e-05
3.43494e-05
3.39612e-05
3.47501e-05
3.43618e-05
3.39734e-05
3.47452e-05
3.43569e-05
3.39687e-05
3.47522e-05
3.43639e-05
3.39755e-05
3.47497e-05
3.43614e-05
3.39731e-05
3.47528e-05
3.43645e-05
3.39762e-05
3.4752e-05
3.43637e-05
3.39754e-05
3.47528e-05
3.43645e-05
3.39762e-05
3.4753e-05
3.43646e-05
3.39763e-05
3.47527e-05
3.43644e-05
3.3976e-05
3.4753e-05
3.43647e-05
3.39764e-05
3.47527e-05
3.43643e-05
3.3976e-05
3.47528e-05
3.43644e-05
3.39761e-05
3.47526e-05
3.43643e-05
3.39759e-05
3.47525e-05
3.43641e-05
3.39758e-05
3.47524e-05
3.4364e-05
3.39757e-05
3.47522e-05
3.43639e-05
3.39755e-05
3.47519e-05
3.43635e-05
3.39752e-05
3.4752e-05
3.43636e-05
3.39753e-05
3.47513e-05
3.4363e-05
3.39746e-05
3.47517e-05
3.43634e-05
3.39751e-05
3.47509e-05
3.43626e-05
3.39742e-05
3.47515e-05
3.43632e-05
3.39749e-05
3.47509e-05
3.43626e-05
3.39743e-05
3.47514e-05
3.43631e-05
3.39747e-05
3.47514e-05
3.43631e-05
3.39748e-05
3.47514e-05
3.43631e-05
3.39748e-05
3.47522e-05
3.43639e-05
3.39755e-05
3.47516e-05
3.43633e-05
3.3975e-05
3.47528e-05
3.43645e-05
3.39761e-05
3.4752e-05
3.43636e-05
3.39753e-05
3.47529e-05
3.43646e-05
3.39763e-05
3.47523e-05
3.43639e-05
3.39756e-05
3.47526e-05
3.43642e-05
3.39759e-05
3.47524e-05
3.43641e-05
3.39758e-05
3.47519e-05
3.43635e-05
3.39752e-05
3.47524e-05
3.4364e-05
3.39757e-05
3.47514e-05
3.43631e-05
3.39747e-05
3.47522e-05
3.43639e-05
3.39756e-05
3.47515e-05
3.43632e-05
3.39749e-05
3.47522e-05
3.43639e-05
3.39756e-05
3.47525e-05
3.43642e-05
3.39759e-05
3.47526e-05
3.43643e-05
3.3976e-05
3.47543e-05
3.43659e-05
3.39776e-05
3.47536e-05
3.43653e-05
3.39769e-05
3.47564e-05
3.43681e-05
3.39797e-05
3.47552e-05
3.43668e-05
3.39784e-05
3.47586e-05
3.43702e-05
3.39818e-05
3.47571e-05
3.43687e-05
3.39803e-05
3.47605e-05
3.43721e-05
3.39836e-05
3.47591e-05
3.43706e-05
3.39822e-05
3.47619e-05
3.43735e-05
3.3985e-05
3.47608e-05
3.43724e-05
3.39839e-05
3.47629e-05
3.43745e-05
3.3986e-05
3.47622e-05
3.43737e-05
3.39853e-05
3.47636e-05
3.43751e-05
3.39867e-05
3.4763e-05
3.43745e-05
3.39861e-05
3.47639e-05
3.43754e-05
3.3987e-05
3.47633e-05
3.43748e-05
3.39863e-05
3.47637e-05
3.43753e-05
3.39868e-05
3.4763e-05
3.43745e-05
3.39861e-05
3.4763e-05
3.43746e-05
3.39861e-05
3.47623e-05
3.43738e-05
3.39854e-05
3.47619e-05
3.43735e-05
3.39851e-05
3.47615e-05
3.43731e-05
3.39847e-05
3.47613e-05
3.43728e-05
3.39844e-05
3.47618e-05
3.43734e-05
3.39849e-05
3.47628e-05
3.43743e-05
3.39859e-05
3.47651e-05
3.43766e-05
3.39881e-05
3.47694e-05
3.43809e-05
3.39924e-05
3.47741e-05
3.43856e-05
3.3997e-05
3.47848e-05
3.43961e-05
3.40074e-05
3.47913e-05
3.44026e-05
3.40139e-05
3.48096e-05
3.44206e-05
3.40316e-05
3.48149e-05
3.44259e-05
3.40369e-05
3.48347e-05
3.44453e-05
3.4056e-05
3.48312e-05
3.4442e-05
3.40528e-05
3.48287e-05
3.44393e-05
3.40499e-05
3.48048e-05
3.44158e-05
3.40267e-05
3.47295e-05
3.43411e-05
3.39527e-05
3.46754e-05
3.42876e-05
3.38999e-05
3.4464e-05
3.40786e-05
3.36931e-05
3.43809e-05
3.39963e-05
3.36117e-05
3.40168e-05
3.36364e-05
3.32559e-05
3.39001e-05
3.35209e-05
3.31418e-05
3.34284e-05
3.30545e-05
3.26806e-05
3.32059e-05
3.28347e-05
3.24636e-05
3.27251e-05
3.23587e-05
3.19923e-05
3.22387e-05
3.18785e-05
3.15182e-05
3.17916e-05
3.14351e-05
3.10786e-05
3.08358e-05
3.04907e-05
3.01456e-05
3.0176e-05
2.98441e-05
2.95122e-05
2.87524e-05
2.84259e-05
2.80993e-05
3.03797e-05
3.00448e-05
2.97099e-05
2.87404e-05
2.84111e-05
2.8082e-05
2.83499e-05
2.80481e-05
2.77462e-05
3.44304e-05
3.40454e-05
3.36603e-05
3.49416e-05
3.45499e-05
3.41582e-05
3.51213e-05
3.47292e-05
3.43372e-05
3.44273e-05
3.40422e-05
3.36571e-05
3.46069e-05
3.42197e-05
3.38326e-05
3.42753e-05
3.38918e-05
3.35083e-05
3.44976e-05
3.41118e-05
3.3726e-05
3.44737e-05
3.4088e-05
3.37024e-05
3.45568e-05
3.41704e-05
3.3784e-05
3.45294e-05
3.41432e-05
3.37571e-05
3.44623e-05
3.4077e-05
3.36916e-05
3.47873e-05
3.43981e-05
3.40089e-05
3.43644e-05
3.39801e-05
3.35957e-05
3.45404e-05
3.41535e-05
3.37666e-05
3.55529e-05
3.51573e-05
3.47618e-05
3.33896e-05
3.30077e-05
3.26258e-05
3.47556e-05
3.43674e-05
3.39793e-05
3.62957e-05
3.58891e-05
3.54825e-05
4.41099e-05
4.36262e-05
4.31422e-05
4.13243e-05
4.0869e-05
4.04135e-05
3.55152e-05
3.51152e-05
3.47152e-05
3.49189e-05
3.45275e-05
3.4136e-05
3.5357e-05
3.49732e-05
3.45893e-05
3.55449e-05
3.51492e-05
3.47534e-05
3.74545e-05
3.70275e-05
3.66005e-05
3.4847e-05
3.4458e-05
3.4069e-05
3.48218e-05
3.44329e-05
3.40441e-05
3.47438e-05
3.43556e-05
3.39673e-05
3.4761e-05
3.43725e-05
3.39841e-05
3.47637e-05
3.43752e-05
3.39868e-05
3.47598e-05
3.43714e-05
3.3983e-05
3.47532e-05
3.43648e-05
3.39765e-05
3.47515e-05
3.43632e-05
3.39749e-05
3.47502e-05
3.43619e-05
3.39736e-05
3.47498e-05
3.43615e-05
3.39732e-05
3.47519e-05
3.43636e-05
3.39752e-05
3.47536e-05
3.43652e-05
3.39769e-05
3.47538e-05
3.43654e-05
3.39771e-05
3.47536e-05
3.43652e-05
3.39769e-05
3.47557e-05
3.43673e-05
3.39789e-05
3.47588e-05
3.43704e-05
3.3982e-05
3.47652e-05
3.43767e-05
3.39882e-05
3.47637e-05
3.43753e-05
3.39868e-05
3.47621e-05
3.43737e-05
3.39852e-05
3.47598e-05
3.43714e-05
3.3983e-05
3.47633e-05
3.43748e-05
3.39864e-05
3.47811e-05
3.43924e-05
3.40038e-05
3.47977e-05
3.44088e-05
3.402e-05
3.47866e-05
3.43979e-05
3.40092e-05
3.47493e-05
3.43613e-05
3.39732e-05
3.50939e-05
3.4702e-05
3.43101e-05
3.605e-05
3.56484e-05
3.52467e-05
3.87482e-05
3.83038e-05
3.78594e-05
3.44647e-05
3.40791e-05
3.36936e-05
3.44621e-05
3.40766e-05
3.36911e-05
3.75389e-05
3.71133e-05
3.66877e-05
3.69115e-05
3.6494e-05
3.60765e-05
3.45585e-05
3.41721e-05
3.37857e-05
3.4509e-05
3.41231e-05
3.37372e-05
2.66016e-05
2.63076e-05
2.60138e-05
2.81245e-05
2.78064e-05
2.74882e-05
2.89068e-05
2.85685e-05
2.82304e-05
2.9933e-05
2.96008e-05
2.92686e-05
2.844e-05
2.81307e-05
2.78211e-05
2.85812e-05
2.82602e-05
2.79392e-05
3.01216e-05
2.97816e-05
2.94416e-05
2.77962e-05
2.74831e-05
2.71701e-05
2.87936e-05
2.84691e-05
2.81447e-05
2.77167e-05
2.7405e-05
2.70933e-05
2.77165e-05
2.74054e-05
2.70943e-05
2.77086e-05
2.73974e-05
2.70862e-05
2.75191e-05
2.721e-05
2.6901e-05
2.76921e-05
2.73813e-05
2.70704e-05
2.76447e-05
2.73343e-05
2.70238e-05
2.76406e-05
2.73303e-05
2.702e-05
2.77199e-05
2.74086e-05
2.70974e-05
2.75844e-05
2.72747e-05
2.69651e-05
2.76863e-05
2.73754e-05
2.70646e-05
2.75491e-05
2.72398e-05
2.69306e-05
2.76189e-05
2.73088e-05
2.69987e-05
2.75414e-05
2.72322e-05
2.69231e-05
2.75715e-05
2.7262e-05
2.69525e-05
2.75538e-05
2.72446e-05
2.69353e-05
2.75564e-05
2.72471e-05
2.69378e-05
2.75715e-05
2.7262e-05
2.69526e-05
2.75633e-05
2.7254e-05
2.69446e-05
2.75787e-05
2.72691e-05
2.69595e-05
2.75778e-05
2.72683e-05
2.69587e-05
2.7558e-05
2.72488e-05
2.69395e-05
2.75823e-05
2.72727e-05
2.69631e-05
2.74727e-05
2.71655e-05
2.68583e-05
2.7528e-05
2.72192e-05
2.69104e-05
2.71391e-05
2.68399e-05
2.65407e-05
2.7172e-05
2.68689e-05
2.65658e-05
2.60361e-05
2.57631e-05
2.54901e-05
2.57762e-05
2.54947e-05
2.52131e-05
2.22578e-05
2.20075e-05
2.17573e-05
2.1761e-05
2.15256e-05
2.12904e-05
3.03428e-05
3.0031e-05
2.9719e-05
2.48034e-05
2.45343e-05
2.42651e-05
2.42353e-05
2.3966e-05
2.3697e-05
2.57799e-05
2.5503e-05
2.52261e-05
3.85898e-05
3.81719e-05
3.77536e-05
3.59321e-05
3.55441e-05
3.51561e-05
3.45422e-05
3.41559e-05
3.37696e-05
3.4536e-05
3.41498e-05
3.37636e-05
3.5579e-05
3.51814e-05
3.47838e-05
3.55945e-05
3.51974e-05
3.48002e-05
3.49511e-05
3.45593e-05
3.41674e-05
4.02959e-05
3.98397e-05
3.93835e-05
3.44339e-05
3.40489e-05
3.36639e-05
3.44552e-05
3.40697e-05
3.36843e-05
3.4429e-05
3.40436e-05
3.36581e-05
4.04371e-05
3.9998e-05
3.95587e-05
3.44192e-05
3.4034e-05
3.36488e-05
3.41534e-05
3.37542e-05
3.33552e-05
3.43642e-05
3.39798e-05
3.35955e-05
3.43762e-05
3.39915e-05
3.36068e-05
3.46127e-05
3.4225e-05
3.38373e-05
3.44877e-05
3.4102e-05
3.37163e-05
3.66719e-05
3.62638e-05
3.58556e-05
4.35293e-05
4.30395e-05
4.25495e-05
3.50481e-05
3.46552e-05
3.42624e-05
3.49526e-05
3.45616e-05
3.41707e-05
3.55915e-05
3.51935e-05
3.47956e-05
3.54208e-05
3.50271e-05
3.46334e-05
3.512e-05
3.47281e-05
3.43361e-05
3.45324e-05
3.41463e-05
3.37601e-05
3.62473e-05
3.58405e-05
3.54338e-05
3.47392e-05
3.43511e-05
3.3963e-05
3.47546e-05
3.43663e-05
3.39779e-05
3.47796e-05
3.43909e-05
3.40023e-05
3.47784e-05
3.43898e-05
3.40012e-05
3.47565e-05
3.43681e-05
3.39797e-05
3.47674e-05
3.43789e-05
3.39904e-05
3.47508e-05
3.43625e-05
3.39742e-05
3.47501e-05
3.43618e-05
3.39734e-05
3.47507e-05
3.43624e-05
3.39741e-05
3.47535e-05
3.43651e-05
3.39768e-05
3.47545e-05
3.43661e-05
3.39777e-05
3.47526e-05
3.43643e-05
3.39759e-05
3.47532e-05
3.43649e-05
3.39766e-05
3.47577e-05
3.43693e-05
3.39809e-05
3.47629e-05
3.43744e-05
3.3986e-05
3.47655e-05
3.4377e-05
3.39885e-05
3.47656e-05
3.43771e-05
3.39886e-05
3.47628e-05
3.43743e-05
3.39859e-05
3.47628e-05
3.43744e-05
3.39859e-05
3.47709e-05
3.43824e-05
3.39939e-05
3.47938e-05
3.4405e-05
3.40162e-05
3.48179e-05
3.44288e-05
3.40397e-05
3.47617e-05
3.43733e-05
3.39849e-05
3.48501e-05
3.4461e-05
3.40719e-05
3.55872e-05
3.51898e-05
3.47924e-05
3.68124e-05
3.64056e-05
3.59988e-05
3.47631e-05
3.43746e-05
3.39862e-05
3.47578e-05
3.43694e-05
3.39811e-05
3.06727e-05
3.03386e-05
3.00045e-05
3.4756e-05
3.43676e-05
3.39793e-05
4.19102e-05
4.14394e-05
4.09684e-05
3.58997e-05
3.54986e-05
3.50975e-05
3.50351e-05
3.46443e-05
3.42535e-05
3.4739e-05
3.43509e-05
3.39628e-05
3.47851e-05
3.43961e-05
3.40072e-05
3.47914e-05
3.44026e-05
3.40138e-05
3.47813e-05
3.43927e-05
3.40041e-05
3.47642e-05
3.43757e-05
3.39873e-05
3.47608e-05
3.43723e-05
3.39839e-05
3.47623e-05
3.43738e-05
3.39854e-05
3.47631e-05
3.43746e-05
3.39862e-05
3.42906e-05
3.39069e-05
3.35232e-05
3.71716e-05
3.67598e-05
3.6348e-05
3.54224e-05
3.50268e-05
3.46311e-05
3.48282e-05
3.44393e-05
3.40504e-05
3.47503e-05
3.4362e-05
3.39736e-05
3.48067e-05
3.44175e-05
3.40283e-05
3.47538e-05
3.43655e-05
3.39771e-05
3.47914e-05
3.44026e-05
3.40138e-05
3.47715e-05
3.43829e-05
3.39944e-05
3.47638e-05
3.43753e-05
3.39868e-05
3.4763e-05
3.43745e-05
3.39861e-05
3.47652e-05
3.43767e-05
3.39882e-05
3.47649e-05
3.43764e-05
3.39879e-05
3.47615e-05
3.43731e-05
3.39846e-05
3.47572e-05
3.43688e-05
3.39804e-05
3.47543e-05
3.4366e-05
3.39776e-05
3.47532e-05
3.43649e-05
3.39765e-05
3.47531e-05
3.43648e-05
3.39764e-05
3.47526e-05
3.43643e-05
3.39759e-05
3.47508e-05
3.43625e-05
3.39742e-05
3.47501e-05
3.43618e-05
3.39735e-05
3.4751e-05
3.43627e-05
3.39743e-05
3.47679e-05
3.43792e-05
3.39904e-05
3.4759e-05
3.43706e-05
3.39822e-05
3.47775e-05
3.43886e-05
3.39997e-05
3.62463e-05
3.58379e-05
3.54295e-05
3.47263e-05
3.43383e-05
3.39504e-05
3.90706e-05
3.86152e-05
3.816e-05
3.55586e-05
3.51645e-05
3.47703e-05
3.47528e-05
3.43645e-05
3.39761e-05
3.47536e-05
3.43653e-05
3.39769e-05
3.47518e-05
3.43635e-05
3.39752e-05
3.47505e-05
3.43621e-05
3.39738e-05
3.47503e-05
3.4362e-05
3.39737e-05
3.47669e-05
3.43782e-05
3.39895e-05
3.47565e-05
3.43681e-05
3.39798e-05
3.47772e-05
3.43883e-05
3.39995e-05
3.4778e-05
3.43891e-05
3.40002e-05
3.47521e-05
3.43638e-05
3.39754e-05
3.47222e-05
3.43376e-05
3.3953e-05
3.47201e-05
3.43322e-05
3.39442e-05
3.62587e-05
3.58536e-05
3.54485e-05
3.47315e-05
3.43434e-05
3.39553e-05
3.47739e-05
3.43851e-05
3.39963e-05
2.5422e-05
2.51418e-05
2.48616e-05
2.97961e-05
2.94713e-05
2.91463e-05
3.20189e-05
3.16597e-05
3.13005e-05
2.96502e-05
2.93174e-05
2.89846e-05
3.34307e-05
3.30552e-05
3.26796e-05
3.20707e-05
3.17098e-05
3.13489e-05
3.4182e-05
3.37987e-05
3.34155e-05
3.36859e-05
3.33078e-05
3.29296e-05
3.44663e-05
3.40807e-05
3.36951e-05
3.44319e-05
3.40467e-05
3.36615e-05
3.46014e-05
3.42146e-05
3.38278e-05
3.46408e-05
3.42535e-05
3.38663e-05
3.46678e-05
3.42804e-05
3.38929e-05
3.46811e-05
3.42935e-05
3.39059e-05
3.46981e-05
3.43103e-05
3.39226e-05
3.46866e-05
3.42989e-05
3.39112e-05
3.47152e-05
3.43273e-05
3.39393e-05
3.4695e-05
3.43073e-05
3.39196e-05
3.47297e-05
3.43416e-05
3.39535e-05
3.47107e-05
3.43228e-05
3.39349e-05
3.47419e-05
3.43537e-05
3.39655e-05
3.47274e-05
3.43394e-05
3.39513e-05
3.47506e-05
3.43622e-05
3.39739e-05
3.47407e-05
3.43525e-05
3.39643e-05
3.47553e-05
3.43669e-05
3.39785e-05
3.47496e-05
3.43613e-05
3.3973e-05
3.4757e-05
3.43686e-05
3.39802e-05
3.47547e-05
3.43663e-05
3.39779e-05
3.47571e-05
3.43687e-05
3.39803e-05
3.4757e-05
3.43687e-05
3.39803e-05
3.47568e-05
3.43684e-05
3.398e-05
3.47577e-05
3.43693e-05
3.39809e-05
3.47567e-05
3.43683e-05
3.39799e-05
3.47573e-05
3.43689e-05
3.39806e-05
3.47568e-05
3.43684e-05
3.398e-05
3.47567e-05
3.43684e-05
3.398e-05
3.47567e-05
3.43684e-05
3.398e-05
3.47562e-05
3.43679e-05
3.39795e-05
3.47562e-05
3.43678e-05
3.39794e-05
3.47559e-05
3.43675e-05
3.39791e-05
3.47551e-05
3.43668e-05
3.39784e-05
3.47555e-05
3.43672e-05
3.39788e-05
3.4754e-05
3.43657e-05
3.39773e-05
3.47551e-05
3.43668e-05
3.39784e-05
3.47535e-05
3.43651e-05
3.39768e-05
3.47548e-05
3.43664e-05
3.3978e-05
3.47539e-05
3.43655e-05
3.39772e-05
3.47545e-05
3.43662e-05
3.39778e-05
3.47551e-05
3.43667e-05
3.39784e-05
3.47546e-05
3.43663e-05
3.39779e-05
3.47566e-05
3.43682e-05
3.39798e-05
3.47551e-05
3.43667e-05
3.39784e-05
3.47574e-05
3.4369e-05
3.39807e-05
3.47558e-05
3.43674e-05
3.3979e-05
3.47573e-05
3.43689e-05
3.39805e-05
3.47563e-05
3.43679e-05
3.39795e-05
3.47561e-05
3.43678e-05
3.39794e-05
3.47564e-05
3.4368e-05
3.39796e-05
3.47548e-05
3.43664e-05
3.39781e-05
3.47561e-05
3.43678e-05
3.39794e-05
3.47541e-05
3.43657e-05
3.39774e-05
3.47558e-05
3.43674e-05
3.3979e-05
3.47547e-05
3.43664e-05
3.3978e-05
3.47558e-05
3.43674e-05
3.3979e-05
3.47569e-05
3.43685e-05
3.39801e-05
3.47566e-05
3.43682e-05
3.39799e-05
3.47602e-05
3.43717e-05
3.39833e-05
3.47585e-05
3.43701e-05
3.39817e-05
3.47638e-05
3.43754e-05
3.39869e-05
3.47613e-05
3.43729e-05
3.39844e-05
3.47672e-05
3.43787e-05
3.39902e-05
3.47646e-05
3.43761e-05
3.39876e-05
3.47699e-05
3.43814e-05
3.39928e-05
3.47677e-05
3.43792e-05
3.39907e-05
3.47719e-05
3.43833e-05
3.39948e-05
3.47704e-05
3.43818e-05
3.39933e-05
3.47732e-05
3.43846e-05
3.39961e-05
3.47722e-05
3.43837e-05
3.39951e-05
3.47741e-05
3.43855e-05
3.39969e-05
3.47732e-05
3.43847e-05
3.39961e-05
3.47744e-05
3.43858e-05
3.39972e-05
3.47733e-05
3.43847e-05
3.39961e-05
3.47739e-05
3.43853e-05
3.39967e-05
3.47723e-05
3.43837e-05
3.39952e-05
3.47724e-05
3.43838e-05
3.39953e-05
3.47704e-05
3.43818e-05
3.39933e-05
3.477e-05
3.43815e-05
3.3993e-05
3.47683e-05
3.43797e-05
3.39912e-05
3.4768e-05
3.43795e-05
3.3991e-05
3.47677e-05
3.43792e-05
3.39907e-05
3.47691e-05
3.43806e-05
3.39921e-05
3.47725e-05
3.43839e-05
3.39954e-05
3.47782e-05
3.43896e-05
3.4001e-05
3.4788e-05
3.43992e-05
3.40105e-05
3.48011e-05
3.44122e-05
3.40234e-05
3.48195e-05
3.44305e-05
3.40414e-05
3.48396e-05
3.44503e-05
3.40609e-05
3.48659e-05
3.44764e-05
3.40869e-05
3.4878e-05
3.44881e-05
3.40983e-05
3.49054e-05
3.45154e-05
3.41254e-05
3.48571e-05
3.44672e-05
3.40774e-05
3.48732e-05
3.44833e-05
3.40935e-05
3.46473e-05
3.42596e-05
3.3872e-05
3.46528e-05
3.42651e-05
3.38773e-05
3.41081e-05
3.37268e-05
3.33454e-05
3.4151e-05
3.37686e-05
3.33862e-05
3.33225e-05
3.29501e-05
3.25777e-05
3.34475e-05
3.30738e-05
3.27002e-05
3.24248e-05
3.20626e-05
3.17003e-05
3.2538e-05
3.21748e-05
3.18116e-05
3.14327e-05
3.10801e-05
3.07274e-05
3.14523e-05
3.1101e-05
3.07498e-05
2.9896e-05
2.95507e-05
2.92055e-05
2.97456e-05
2.94118e-05
2.9078e-05
2.46451e-05
2.43736e-05
2.41023e-05
2.38018e-05
2.35321e-05
2.32627e-05
2.42143e-05
2.39342e-05
2.36542e-05
3.45037e-05
3.41178e-05
3.3732e-05
3.42577e-05
3.38736e-05
3.34896e-05
3.70291e-05
3.66252e-05
3.62212e-05
3.42979e-05
3.39141e-05
3.35304e-05
3.43924e-05
3.40076e-05
3.36228e-05
3.4263e-05
3.38797e-05
3.34964e-05
3.47433e-05
3.43551e-05
3.39668e-05
3.47591e-05
3.43707e-05
3.39822e-05
3.4635e-05
3.4248e-05
3.38611e-05
3.40798e-05
3.36986e-05
3.33173e-05
3.54268e-05
3.503e-05
3.46332e-05
3.70609e-05
3.6648e-05
3.62352e-05
3.47327e-05
3.43446e-05
3.39565e-05
3.47037e-05
3.43159e-05
3.39281e-05
3.48834e-05
3.44943e-05
3.41052e-05
3.63374e-05